ITEM: TIMESTEP
150000
ITEM: NUMBER OF ATOMS
3000
ITEM: BOX BOUNDS pp pp pp
2.5356144155918869e-01 3.9043957866009720e+01
2.5356144155918869e-01 3.9043957866009720e+01
2.5356144155918869e-01 3.9043957866009720e+01
ITEM: ATOMS id type x y z
1706 11 2.39255 5.28641 4.07808
1094 9 1.30577 9.02636 0.686743
1584 11 0.65381 1.4166 2.74319
49 1 1.24961 6.12014 1.68945
626 1 5.50985 1.99369 2.63313
2067 11 5.3421 4.4371 2.58497
1737 11 7.06875 1.613 0.680722
1415 9 2.27573 0.665874 3.76348
1307 9 6.68634 8.01837 2.94974
2953 11 4.74625 7.60698 3.82967
575 1 2.71493 1.44525 0.624432
2971 11 7.19875 1.17324 4.43178
1712 11 6.99881 7.59643 0.924633
1217 9 4.68595 5.43179 4.23878
2699 11 8.79428 3.97303 2.63335
1473 9 8.74493 2.75087 0.786355
2995 11 8.22315 7.37436 4.17223
210 1 5.18712 6.26859 1.11292
524 1 9.057 6.47234 1.96038
701 1 1.20099 3.68904 2.71008
69 1 7.73081 3.73302 4.63598
2125 11 2.75133 7.54848 0.320048
2205 11 2.34243 3.75236 0.400424
88 1 4.17524 9.63796 1.12309
32 1 8.05312 3.72771 8.68832
103 1 9.49545 9.23358 5.99723
1649 11 2.46412 4.18893 7.69772
2305 11 3.20025 7.55073 7.58348
1153 9 1.76888 3.91027 5.59126
2624 11 9.45107 3.84828 6.50439
378 1 8.50418 1.14368 6.70869
1167 9 1.89467 6.14317 8.36066
2171 11 0.517786 9.05864 5.40414
307 1 5.24688 1.75247 5.84975
2738 11 6.43471 5.59842 9.25845
1251 9 3.12969 8.30839 9.56252
2691 11 6.85248 8.55507 7.31609
2850 11 5.65518 4.62999 5.90186
150 1 7.13107 6.4836 6.16971
392 1 4.92655 3.87698 8.35808
1457 9 6.51232 7.74322 9.25853
1917 11 6.46755 2.11265 7.89415
658 1 5.23587 9.56933 5.56369
2154 11 1.60349 9.76962 9.78008
2855 11 2.89402 1.89817 5.38998
1793 11 0.322485 2.38582 9.8814
1441 9 6.35081 1.40166 9.85409
738 1 0.331052 8.88437 7.84385
2029 11 6.79153 2.23068 14.0323
1046 9 2.00573 3.88471 13.9691
976 1 2.36559 1.67967 11.1045
2307 11 7.08399 5.21946 12.8396
470 1 8.09543 9.61511 12.8059
1989 11 6.19945 8.49337 13.9339
1959 11 2.3864 1.86832 13.5474
2618 11 8.08237 8.48665 10.4662
2218 11 4.65277 2.44539 10.6729
108 1 8.41139 6.17772 11.2596
537 1 4.67741 2.56505 13.1542
198 1 8.1945 7.27077 14.1889
1685 11 2.55296 6.35977 10.4293
1089 9 7.86702 3.28049 12.616
1633 11 1.66432 8.16574 13.9696
2106 11 3.83134 4.85361 13.6802
1817 11 8.21032 2.25331 10.7305
232 1 5.02121 5.06289 11.2748
112 1 4.08701 9.3995 12.9392
1585 11 5.02003 8.8689 10.3698
85 1 0.983427 7.12556 11.9729
695 1 0.264853 0.581337 14.2682
2334 11 0.350923 4.65434 12.8528
1967 11 6.46739 4.59787 17.0462
959 1 2.80383 3.73835 18.0633
1405 9 0.296548 8.55916 18.9927
1403 9 1.07917 1.16753 17.7347
1643 11 9.30328 4.58363 19.2277
2139 11 9.18094 6.66969 16.2828
1096 9 8.49943 4.89022 17.1737
688 1 5.62526 6.50322 18.1203
984 1 1.93805 8.90831 16.3788
1687 11 1.55873 4.45074 15.9662
1398 9 6.32939 9.7468 19.2466
335 1 6.35749 2.301 17.7004
1908 11 4.30401 7.48494 16.5909
840 1 8.42525 8.72257 17.5159
1043 9 5.32386 9.12171 15.7722
2239 11 8.57821 1.36109 18.5031
2398 11 9.88558 3.40934 16.3711
2325 11 0.843704 7.0282 17.7074
2031 11 7.27152 7.89698 19.4529
2268 11 2.9778 1.2951 16.8817
55 1 2.56297 6.43599 15.3902
367 1 8.35536 1.45281 15.745
2591 11 1.04015 2.72928 19.145
164 1 2.9678 8.24417 19.006
650 1 5.79228 5.7498 14.9062
2084 11 3.68818 5.48977 19.2786
1962 11 0.857749 1.21189 22.2982
2909 11 6.52008 5.07832 21.3373
608 1 2.61414 1.74096 20.7588
2861 11 7.28046 8.35095 23.2141
2189 11 3.80711 7.12037 22.9052
505 1 7.74362 4.40669 23.5878
128 1 8.52898 9.68886 21.6269
627 1 2.21104 5.85989 21.2967
1203 9 7.77929 0.713994 23.5542
2694 11 3.44856 3.63838 22.3022
1925 11 8.77389 2.29999 22.5694
1044 9 4.69871 4.15887 20.6238
178 1 7.59572 3.03376 20.436
2089 11 1.17655 8.2854 20.934
12 1 1.3083 3.48268 23.2634
686 1 5.60141 7.30842 21.0776
735 1 5.22656 0.861647 21.9187
2213 11 4.45142 9.59524 20.1579
1944 11 9.50769 6.08771 24.3048
1906 11 0.714849 5.68593 24.2951
1819 11 5.18909 2.21093 19.7714
729 1 1.69874 8.19091 23.6084
1224 9 5.50232 7.34768 24.0975
745 1 3.62067 4.99417 24.3554
2741 11 5.98114 1.62942 24.4146
129 1 9.01887 0.74047 20.6586
1999 11 5.25521 3.39275 27.5355
2664 11 8.43281 3.17482 26.2095
1162 9 1.88385 0.850521 26.4382
2672 11 2.99763 6.04117 26.7612
1981 11 6.98619 6.61624 28.4401
191 1 4.94717 1.37495 29.0397
110 1 9.71032 3.47771 28.4899
331 1 7.91174 5.37274 26.2794
963 1 0.928297 9.42951 27.7023
1176 9 3.22614 3.99871 27.524
2304 11 2.10604 2.94456 25.9533
2000 11 0.401988 7.31592 28.8447
2143 11 2.85342 0.514525 28.1774
114 1 5.28083 6.57646 26.9401
1586 11 5.99723 5.5122 24.9328
2042 11 5.16129 8.89418 25.5703
1331 9 6.66511 2.16085 26.3432
1058 9 2.41233 6.62746 28.8451
361 1 6.94894 9.01196 27.581
1646 11 8.57781 9.83839 26.1189
2127 11 6.73551 0.346813 27.6198
2310 11 0.430077 8.93052 25.5922
1311 9 6.95853 9.83795 24.7102
1146 9 8.88927 6.57818 29.207
995 1 9.86312 7.95939 25.7981
857 1 5.71142 3.87653 30.5556
4 1 2.42514 0.755546 30.387
1038 9 0.870148 9.7523 34.0627
147 1 0.466092 3.67909 30.3078
2361 11 2.66724 6.23725 32.4896
1298 9 0.69214 6.17614 33.5031
768 1 5.53491 2.66637 33.5985
1515 11 4.33157 2.10652 31.412
781 1 2.80395 2.22766 33.5763
558 1 5.59338 6.96917 30.45
1762 11 5.97445 5.19881 32.9636
1090 9 7.89323 0.731631 29.3573
1764 11 9.07205 1.05242 33.3076
1818 11 6.05188 8.6765 32.1942
2700 11 7.84973 2.71567 29.9812
296 1 8.31194 5.21621 33.7618
2815 11 9.04511 5.28891 31.0492
2318 11 0.910089 1.94291 31.7438
168 1 3.59051 8.31748 31.983
1349 9 4.18884 5.57127 34.0306
2609 11 2.64053 4.59893 29.5393
1534 11 9.41779 8.32488 30.2551
1560 11 9.62462 7.65981 33.6954
240 1 9.70013 2.70207 31.6884
1628 11 1.57222 9.7393 32.008
2371 11 3.86017 8.00581 29.3712
1634 11 0.314251 5.75584 37.4164
2646 11 7.31741 2.73825 35.6698
2778 11 3.55482 3.89082 35.0043
2668 11 7.82561 6.32127 35.9329
2362 11 9.06908 4.36251 38.1664
1409 9 7.34754 4.54407 36.9779
1444 9 9.46864 2.22877 34.9806
2483 11 5.5643 4.8581 37.8572
443 1 5.80299 7.45656 37.1652
1540 11 4.24448 0.437455 37.5026
2779 11 4.23326 7.28345 35.3607
749 1 4.34288 2.98145 37.0851
339 1 2.8546 5.67695 37.3146
2674 11 1.45306 0.351787 35.2211
1454 9 0.290289 3.99488 38.5938
951 1 2.85964 8.57494 36.6965
570 1 6.56867 7.47994 34.2914
826 1 7.15892 9.69216 38.5842
987 1 6.74622 0.743529 37.2482
1432 9 9.21811 18.523 4.55606
2651 11 7.52499 15.8143 2.1099
2354 11 1.91088 10.6023 2.02269
1372 9 6.65178 12.0405 3.3247
1041 9 3.85759 17.6448 2.60434
1225 9 5.93278 14.7568 1.45085
2278 11 5.03152 13.517 3.06444
842 1 1.28375 12.2706 0.561642
1973 11 8.67459 12.502 2.66204
2584 11 4.60053 16.4329 0.791368
22 1 6.85407 15.9067 4.54858
386 1 6.94184 18.1001 2.02883
2777 11 1.7936 18.1381 2.00608
2564 11 8.73043 19.6061 2.85552
2542 11 4.00687 16.522 4.36314
2397 11 0.995823 14.5971 1.89487
2261 11 6.02527 10.2001 2.59248
461 1 9.31474 14.6437 2.41693
2191 11 5.05142 19.3296 2.83141
519 1 3.22258 14.1675 4.35547
1658 11 6.14658 12.2562 8.7317
1488 9 5.2562 12.3205 6.7775
1216 9 3.68308 15.4155 7.75104
455 1 7.32239 16.436 7.68445
2109 11 9.6542 11.4872 7.46088
2647 11 7.4146 18.1081 5.70022
2650 11 4.88872 14.326 6.21204
907 1 8.37435 13.4089 8.12649
2230 11 5.18008 16.3515 8.83112
720 1 3.9568 11.4071 9.55152
2755 11 9.02317 17.6276 9.57772
197 1 2.60868 17.2805 9.6149
1827 11 6.88142 11.6021 5.42329
2644 11 1.92367 16.517 7.43352
1899 11 8.40966 14.8692 6.15413
2811 11 2.99456 13.6514 9.01777
2866 11 3.74021 11.0163 6.66581
956 1 9.17827 19.1409 7.91337
97 1 7.77477 10.1896 8.68744
2400 11 0.9838 13.4849 5.14891
2095 11 1.74421 19.5081 5.2373
727 1 4.20661 19.0055 5.12481
691 1 9.14648 12.3896 5.23728
564 1 1.51488 11.3005 5.9153
903 1 1.85676 16.987 5.20183
84 1 7.15815 17.2931 13.5936
2242 11 6.00836 15.263 12.2292
1066 9 1.3191 14.1806 10.2986
2142 11 6.98191 19.1486 11.7496
892 1 5.53181 14.3447 9.96042
971 1 9.05609 13.0058 14.6715
1083 9 4.30396 12.3305 14.5031
2259 11 7.96636 12.0631 12.0531
1565 11 0.953002 12.6173 11.6359
750 1 8.08559 15.8827 11.213
2961 11 4.54085 12.0218 12.3847
1213 9 9.04231 18.6583 11.3838
2100 11 1.90398 15.905 11.4127
1144 9 6.22147 13.2966 12.773
449 1 4.19671 15.9442 13.7483
2071 11 9.54015 17.1938 12.8057
96 1 1.41079 14.4431 13.3953
490 1 2.60558 18.9527 12.6195
2571 11 2.85209 19.559 10.182
2136 11 9.44068 14.3307 10.023
1154 9 9.8803 12.8485 11.4847
1786 11 2.74671 17.6462 14.58
528 1 4.20179 15.4313 16.7279
1931 11 6.30764 14.932 18.3107
1937 11 2.027 15.5621 18.1159
1105 9 8.24133 14.6243 17.5123
911 1 6.51768 17.3907 18.1655
725 1 2.0631 17.8646 17.41
2081 11 0.896673 10.4626 18.1752
2823 11 6.43166 10.2668 17.1774
2316 11 5.77897 17.4535 15.7235
1081 9 9.81325 16.7857 16.3271
2763 11 8.90862 12.6432 17.5639
1518 11 8.74922 18.6622 16.2062
1576 11 8.43785 15.3334 15.3589
1930 11 3.62346 10.5218 15.4938
2895 11 4.44727 18.0821 19.4318
2558 11 9.58195 16.0805 18.428
1465 9 4.26278 18.8448 15.3938
2801 11 9.88925 10.4754 15.1051
1775 11 6.37168 12.7942 14.86
1865 11 3.29434 14.0254 15.0042
1905 11 8.22964 14.0417 22.1427
1124 9 3.58334 14.7484 22.331
2439 11 7.30219 11.2954 20.3278
183 1 4.8349 18.3968 21.6882
983 1 5.32545 11.1917 21.8995
2808 11 3.89934 13.2783 20.8267
538 1 1.86937 12.6804 23.0738
706 1 2.28238 10.6431 20.9333
1932 11 5.30419 16.0765 22.4481
796 1 6.39764 13.6295 20.4686
2754 11 1.60272 15.4969 22.0254
1393 9 7.4169 15.5986 23.0781
1758 11 8.53224 17.2811 22.2877
2505 11 2.96778 18.8739 22.8515
2518 11 6.56465 11.7247 23.9268
1181 9 7.82227 19.2116 22.9464
2660 11 2.85803 10.4663 23.4636
466 1 0.820529 17.8688 22.5536
1529 11 3.42813 13.9761 24.3343
78 1 2.28173 17.028 20.1463
1594 11 0.908498 18.8161 20.0601
612 1 1.38553 13.5036 19.7936
787 1 9.61904 11.9742 19.8525
1014 9 3.03017 18.8634 24.993
438 1 9.36887 15.1832 27.4484
1122 9 3.15427 13.1149 27.7748
2195 11 2.73173 11.2094 26.841
1578 11 1.08772 18.124 25.5378
1736 11 5.07989 13.6838 27.2812
2631 11 4.51057 17.6079 26.0385
439 1 3.10969 16.8478 28.087
2002 11 2.03236 18.6959 29.0818
351 1 4.3489 11.8611 24.8463
1054 9 1.55918 10.5731 25.1109
625 1 6.67423 15.4399 28.173
2583 11 1.67667 14.609 27.3589
2566 11 8.04489 17.3204 28.2414
705 1 8.54862 11.7976 27.9856
972 1 1.4847 15.7162 25.017
2476 11 8.24896 19.4637 25.0002
520 1 6.74735 17.6874 26.1896
138 1 5.13294 15.3374 25.1351
2276 11 6.06329 10.5661 29.2866
2756 11 7.42241 15.3569 25.1455
327 1 3.65217 10.3851 29.1886
643 1 8.57403 13.0482 24.6358
1468 9 9.01635 13.4301 31.1886
621 1 0.61602 11.5528 30.7139
2556 11 4.75527 15.3976 32.8434
2023 11 8.48308 11.3387 31.6249
577 1 3.03338 14.275 31.7082
2495 11 7.55968 18.0195 31.7691
266 1 5.68762 12.9886 29.542
1434 9 6.37676 10.6015 31.3894
2231 11 5.32421 12.1317 32.3178
1627 11 8.37017 14.4855 32.837
1858 11 5.18229 16.4667 29.7135
2238 11 1.37462 16.0623 31.2438
56 1 0.408062 15.4979 33.593
988 1 2.89875 11.6128 32.9656
964 1 7.15996 12.333 34.0937
1318 9 6.72345 17.9047 29.8311
765 1 6.80681 15.5934 31.5601
2704 11 2.87558 12.6473 29.8738
753 1 3.56871 16.9637 31.2821
1302 9 0.635699 17.9785 30.5398
1392 9 1.75237 19.3332 33.4348
2182 11 3.67656 19.1081 32.548
39 1 0.839402 14.4121 29.6681
800 1 8.98357 16.6344 33.7025
1651 11 2.10377 13.8104 33.9163
2826 11 7.99573 13.8234 29.4155
397 1 9.68563 19.3938 32.0855
166 1 9.30829 10.0244 33.4891
1773 11 8.47844 13.2899 36.0388
1106 9 4.77244 12.2921 37.4957
1145 9 1.38182 18.1003 36.9209
728 1 3.23654 15.2222 38.0621
2532 11 2.8092 12.909 37.8726
64 1 9.34666 16.9326 38.6955
1811 11 6.3406 13.4198 38.6649
2431 11 8.28541 16.2195 36.0631
2836 11 7.49485 10.215 35.0132
26 1 5.28247 18.0451 37.7211
1700 11 7.97121 19.0362 38.2084
807 1 6.50803 14.9662 36.8118
1667 11 4.94038 10.2766 37.7631
2848 11 9.17764 19.2342 34.9013
1890 11 4.32709 15.8584 36.1871
1350 9 7.77448 18.3062 36.1864
1063 9 4.01786 14.4764 34.5666
2930 11 1.37659 17.6609 34.7241
2988 11 5.99437 19.0928 35.4161
610 1 1.44445 12.3717 35.8711
1731 11 5.11411 12.774 35.3475
2519 11 1.12629 15.9593 37.4747
1299 9 9.04239 11.1923 36.142
2862 11 9.40476 10.5447 38.0831
1945 11 3.13116 19.1759 37.5095
19 1 4.06905 17.6788 34.5609
2422 11 2.49172 10.3538 35.2068
555 1 8.858 13.0502 38.8412
496 1 4.9441 10.0817 35.1828
1 1 9.90153 13.3007 34.2039
1701 11 1.83874 21.7392 2.5378
1717 11 5.27899 23.1933 2.6061
1048 9 8.68806 25.0387 0.939303
2313 11 1.18443 25.2012 3.33875
1969 11 8.81325 24.104 2.87495
858 1 4.10619 21.3772 2.14679
823 1 8.26594 27.3284 3.41231
1411 9 5.53308 29.011 4.77208
1268 9 5.49663 23.4681 0.512902
948 1 8.42964 29.1205 1.42323
2217 11 5.3739 27.1413 4.01906
316 1 6.89921 21.0745 2.94168
116 1 3.00648 23.5776 3.63744
2323 11 2.19151 28.0001 1.53068
1204 9 0.964709 27.3308 2.96971
1616 11 7.72939 26.868 1.15173
188 1 6.6263 24.7342 3.79681
548 1 4.68398 27.5536 1.59164
2973 11 1.40598 28.2349 4.94429
1099 9 1.14695 19.8742 3.26564
1344 9 1.33572 26.3465 9.4684
2196 11 3.30319 26.1708 8.57483
1158 9 5.52146 22.7062 6.21258
203 1 6.88379 20.2897 6.3311
737 1 4.41613 20.8854 9.30921
2554 11 3.85316 23.8217 5.73287
2922 11 4.76567 20.768 6.77583
1062 9 9.4315 26.9401 7.19904
190 1 2.55857 21.6425 6.41728
1418 9 7.04612 22.7124 9.45911
2781 11 7.93912 26.973 8.7937
2658 11 6.35511 23.9385 7.88838
2161 11 2.75918 22.6181 8.89589
2578 11 0.756512 28.223 8.75475
2746 11 8.14223 21.2077 8.57209
958 1 4.33107 26.1799 5.89847
2130 11 5.11982 29.1915 6.96253
1059 9 1.41985 21.1154 9.68487
1645 11 8.77832 25.9892 5.35131
843 1 2.9519 29.0591 8.23172
1346 9 9.34067 25.8037 9.94392
326 1 8.5965 23.1538 6.74995
1519 11 7.22568 22.2683 5.1041
1381 9 6.28677 20.9287 12.5146
2365 11 3.69837 27.353 14.5159
2500 11 1.98462 26.2829 11.4839
1092 9 3.93651 27.0845 10.5937
1365 9 4.94379 25.7829 13.6324
1677 11 5.52122 22.2311 10.902
2679 11 7.50373 22.1645 13.7618
2543 11 6.8346 25.834 14.4369
1740 11 0.38818 22.0905 11.36
2237 11 8.71419 23.8019 10.5635
21 1 8.22929 24.6747 12.885
1909 11 5.55318 26.0506 11.3697
1850 11 4.57125 20.363 13.8271
2559 11 0.344845 21.5737 14.3982
2214 11 3.76343 24.0317 13.8152
2387 11 9.69995 26.757 11.819
2714 11 3.92364 29.1359 10.5426
8 1 3.92958 24.1996 10.5116
859 1 0.950191 23.9559 12.8647
98 1 9.80749 21.9337 13.5645
1662 11 6.73508 20.0706 18.7072
1447 9 9.44963 27.1698 18.5604
1963 11 6.09236 23.1906 17.1828
1476 9 7.47659 22.0316 18.3593
1926 11 3.20152 24.9564 17.1909
2269 11 7.18401 27.0386 18.2862
1489 9 2.65187 25.4491 15.2276
714 1 5.40045 22.4545 14.9987
821 1 3.55315 26.7542 18.9212
1862 11 9.32535 22.2095 17.2556
1526 11 0.653799 28.3877 17.0756
830 1 3.18457 22.544 17.8215
10 1 7.99569 24.1341 15.6433
2017 11 3.63327 20.2141 17.0734
659 1 5.37577 25.6339 16.8936
1187 9 4.63695 20.1439 18.9761
1521 11 4.20633 28.9595 18.0144
1232 9 6.28098 29.0198 18.2503
1921 11 0.577628 25.3772 14.8188
2589 11 0.590836 22.2185 17.8091
510 1 0.466384 24.4193 17.0406
2786 11 9.76586 27.1097 16.4721
926 1 3.05017 21.2891 23.1131
264 1 7.37476 25.3251 20.0486
2201 11 8.54967 22.9593 23.6641
2470 11 5.10222 25.2835 23.913
2243 11 4.06848 28.1638 22.1658
891 1 5.39583 22.8918 21.3277
2352 11 1.81971 23.4343 23.1103
2187 11 7.47561 27.0257 22.222
669 1 1.24009 25.7546 22.4957
1155 9 5.4098 26.4248 22.1211
1002 9 7.92078 28.3967 24.115
208 1 2.02725 28.9808 20.5714
2925 11 4.96287 25.194 20.4885
2437 11 3.79786 21.5945 20.1789
1954 11 7.65454 22.787 20.369
1427 9 9.19494 22.1192 21.8452
2587 11 6.00651 20.1234 22.5175
2809 11 1.4576 26.8615 20.1484
1745 11 9.43277 19.9549 21.6949
48 1 7.71527 25.0748 24.3844
978 1 1.47839 21.1603 19.8422
1168 9 4.62275 28.9186 24.1221
1129 9 1.35274 29.1119 24.3491
2652 11 1.4113 27.0929 24.465
1384 9 4.41663 27.9079 28.4738
2619 11 6.40171 22.8205 26.2847
1461 9 5.16628 26.9325 25.2159
1637 11 7.29513 27.0979 25.7237
2379 11 1.23218 23.9812 27.2866
1956 11 8.97433 21.5829 28.275
2157 11 8.76156 28.3098 29.1208
1934 11 2.29932 28.5334 28.4923
690 1 9.3488 21.5569 25.7412
1197 9 7.87504 23.3759 27.7376
126 1 1.43498 26.3281 26.8272
2374 11 9.24793 24.649 26.7752
1530 11 4.24747 26.3319 27.0624
3 1 7.83126 19.6555 27.7156
592 1 5.11869 24.2229 27.9285
1867 11 3.42041 20.8568 25.5696
921 1 1.15808 22.0294 25.8092
382 1 8.78092 25.9166 28.9207
681 1 4.90632 20.9111 27.3884
1400 9 2.04226 23.454 29.0774
1805 11 3.82998 22.33 29.1245
2818 11 9.7864 29.1891 24.593
2326 11 5.89616 19.8107 29.2807
111 1 9.51657 29.1688 26.9963
885 1 6.90395 21.2971 24.5017
2845 11 8.53627 27.0172 32.6292
1555 11 8.43054 22.1797 32.1454
1363 9 1.90031 25.902 31.5555
979 1 4.67226 28.8399 32.0679
338 1 7.06323 21.687 30.1465
1134 9 6.94742 22.8915 33.4371
1332 9 6.86298 28.8131 29.6419
2760 11 5.54995 27.2213 30.1769
2982 11 5.32004 21.8628 32.5508
786 1 3.25985 22.5462 33.4974
2209 11 2.18889 24.6908 33.16
2176 11 6.18203 24.8502 33.0619
2919 11 3.06459 25.2737 29.8942
2734 11 2.33171 27.9466 32.0997
163 1 4.82591 23.7238 30.877
352 1 3.69922 20.336 30.4016
526 1 8.0897 24.8915 31.5012
2783 11 0.790353 22.4518 30.5014
1422 9 7.02081 26.5865 34.1069
1161 9 1.59368 29.2432 30.4843
707 1 0.280674 22.9028 33.2566
2959 11 6.89912 24.2703 29.4626
531 1 5.89169 19.7214 32.9137
1626 11 2.02537 26.3874 36.5112
677 1 2.09747 21.0905 38.735
24 1 3.21058 21.6668 36.4
2219 11 4.38128 25.3347 38.7298
2329 11 4.85077 21.6225 38.5133
833 1 0.723132 27.5628 38.2802
1713 11 7.62811 22.5725 35.3983
2804 11 7.92901 26.0536 35.8907
791 1 9.41792 21.4979 34.3492
2063 11 4.20387 23.8307 35.6515
1159 9 3.07819 24.7772 37.1071
2022 11 7.56516 23.5606 38.6805
201 1 7.76978 27.8746 37.4172
276 1 6.38842 24.4628 36.5997
477 1 9.44448 24.0587 36.1036
416 1 6.511 20.8298 36.9334
2296 11 1.93689 23.1664 37.8433
2247 11 1.4616 21.1746 34.3987
530 1 0.520911 25.4598 34.9388
2306 11 5.31933 27.6667 34.2588
285 1 3.5691 26.1918 34.512
2064 11 6.08225 29.0841 38.9538
2891 11 6.90048 33.4559 2.04484
1138 9 5.57998 35.1732 2.36048
2291 11 6.85184 36.7543 3.28922
186 1 6.13855 30.7205 2.22091
529 1 1.81311 30.4393 1.69217
841 1 8.34426 34.5458 0.757648
817 1 3.6713 37.6085 0.617569
551 1 8.95286 35.6252 4.98593
2772 11 4.19998 30.6118 4.18971
2771 11 4.05142 34.6056 3.60124
463 1 8.92067 33.0037 3.20403
2833 11 3.8454 31.6794 0.935415
617 1 5.53672 32.8654 4.52062
1768 11 7.42737 29.7138 4.2472
25 1 8.1035 38.5929 2.25511
2175 11 9.01018 31.5097 1.30119
1928 11 0.582354 34.5497 2.99538
237 1 2.55085 34.4266 1.45802
494 1 3.88126 36.8836 4.32929
2419 11 1.74226 37.5446 4.57881
1732 11 4.82866 35.5872 0.36383
1873 11 3.98004 38.961 2.47206
2477 11 8.8481 37.0005 0.316797
780 1 2.94614 32.9582 8.99423
1244 9 6.63936 38.0301 5.15003
636 1 6.54242 37.1817 8.07769
2563 11 4.74013 32.8791 6.93885
2766 11 6.86493 34.4658 8.92991
1927 11 8.17469 37.4515 6.3727
1648 11 7.79896 33.4734 5.62987
1098 9 6.81399 32.9298 7.41919
2482 11 0.394612 35.8803 7.45748
1297 9 3.91922 30.9972 6.35438
2260 11 4.89794 37.6833 6.23588
2003 11 7.73101 31.2529 8.2289
2475 11 2.11268 31.1366 7.22303
518 1 9.93758 32.9709 6.15885
716 1 8.40967 30.5106 5.97502
849 1 5.80325 30.1875 9.3351
1656 11 8.57666 30.6228 11.5904
876 1 8.80572 34.8282 14.1295
324 1 8.21952 36.0823 11.4137
277 1 6.14321 30.9736 12.1295
1269 9 9.50099 32.0202 12.8897
2927 11 0.542949 35.7479 12.4632
649 1 6.75805 38.5262 14.0693
2019 11 1.90842 32.2745 12.8431
2394 11 4.61859 37.5684 13.3251
91 1 1.5721 30.4051 11.3291
2579 11 8.59708 32.4644 14.6506
1800 11 9.68647 33.9223 11.9122
1128 9 3.22783 32.3378 14.4694
2898 11 6.36685 34.5576 12.2388
2545 11 8.73906 37.7552 12.9896
6 1 2.44182 34.4487 12.4558
1015 9 5.40141 35.647 13.7518
631 1 3.98739 37.3677 11.0151
1828 11 4.74278 31.9715 10.4822
2994 11 4.68064 30.9365 14.4041
1211 9 5.40572 33.9405 10.35
1681 11 6.33315 38.1443 10.1986
1837 11 3.77852 34.4897 14.6373
2044 11 0.710097 32.6902 10.2426
1903 11 3.57373 34.9623 10.2641
2735 11 1.89935 38.2082 10.1963
258 1 8.83523 32.4187 10.0434
809 1 0.989675 35.771 9.96912
2962 11 9.13955 32.4969 18.2466
2401 11 2.27761 31.9682 16.2675
295 1 5.24046 34.9717 19.1824
1844 11 4.21972 36.6202 17.538
2792 11 0.792976 38.093 18.9504
2043 11 0.924673 36.8905 15.6502
2425 11 5.69986 32.7593 17.8173
1007 9 6.21721 37.1021 17.0689
654 1 6.17964 33.1094 15.4107
1525 11 6.87463 35.7328 15.3128
61 1 3.20323 29.7287 15.9956
1125 9 7.35017 31.5217 18.049
2888 11 7.32229 36.6723 18.7537
289 1 3.43721 38.1924 15.4655
1938 11 7.40511 29.8166 16.5877
395 1 3.27815 38.4539 19.0923
459 1 2.46831 34.9908 16.9981
682 1 9.31464 37.8907 17.9905
676 1 3.83513 31.5841 18.6796
217 1 8.66044 34.6405 18.8391
2415 11 1.04985 31.2673 19.2218
421 1 9.78963 30.9289 16.0233
2405 11 0.270988 34.7074 18.1511
2933 11 6.15016 39.0409 16.2691
2366 11 3.6568 31.6128 21.3384
1718 11 6.77392 30.2714 19.874
834 1 5.5207 36.5146 22.6592
43 1 9.39928 37.4012 22.8035
1965 11 3.16806 34.4103 23.4748
2145 11 6.36058 30.0774 24.0367
949 1 5.54973 29.9984 21.8153
1774 11 0.687286 36.7793 22.7571
2915 11 7.2643 38.2783 21.9592
104 1 1.25691 31.594 21.6906
1253 9 4.11622 33.6693 21.7466
2874 11 9.07587 31.5869 22.2044
1257 9 1.50949 34.8949 22.2082
2110 11 6.07093 34.3077 21.5665
1208 9 2.08589 38.4104 22.8435
1982 11 2.75311 34.9223 20.4723
1683 11 3.57411 38.1395 21.4373
970 1 7.29166 33.0612 23.3351
2972 11 0.416804 29.6529 22.4964
2152 11 9.84317 34.725 21.315
478 1 9.57811 30.8233 19.8872
844 1 4.38378 37.622 26.8954
2901 11 1.3946 34.9179 25.9061
1353 9 9.61677 34.5427 26.6109
1663 11 1.1706 36.428 28.9693
1885 11 7.82468 35.313 27.6682
546 1 5.83706 33.7401 27.9301
402 1 9.04709 37.5601 27.0992
401 1 3.52837 33.9691 26.2069
1935 11 3.06004 30.1937 24.9714
2757 11 3.8717 32.4395 28.2703
2639 11 5.83599 36.6254 25.106
641 1 2.5611 30.7411 27.3648
2194 11 2.92138 38.5924 24.8097
2068 11 0.574135 32.7419 28.6749
1897 11 4.61897 35.8815 28.4987
1088 9 7.05407 35.0873 25.6545
2234 11 9.22216 38.7203 24.9159
1714 11 6.06424 33.2057 25.5857
2669 11 5.6277 29.4496 27.9314
2119 11 8.9619 34.7485 24.5563
1419 9 0.500334 34.8019 27.7587
2576 11 9.74458 38.6416 29.3279
2197 11 2.73611 34.2682 31.1306
839 1 5.34371 31.243 29.687
1231 9 8.10937 34.0327 31.6173
1201 9 4.89144 38.9613 31.8763
2384 11 3.27795 37.4165 31.3853
710 1 7.4071 38.2236 33.3368
2227 11 6.52219 29.9968 31.2844
2762 11 6.46427 38.3249 30.7154
1596 11 6.42356 33.475 30.5787
1185 9 2.46197 32.6951 29.6946
2980 11 0.745617 36.2561 33.5244
2979 11 2.821 30.8404 30.9974
2842 11 8.57 32.7931 33.425
2076 11 4.47448 31.4114 33.8703
552 1 2.09223 32.0995 33.2254
167 1 4.97413 33.3248 32.5009
2007 11 8.2334 36.006 32.3635
1270 9 3.05197 35.9993 29.8093
713 1 6.35475 35.798 30.1235
2244 11 9.91562 33.246 30.5678
141 1 3.14208 36.9879 33.7218
578 1 8.5241 29.4587 32.8982
1861 11 5.0826 38.8373 33.8902
462 1 0.358579 37.4551 30.9724
1322 9 4.77227 30.5673 38.1986
1695 11 1.05011 34.6419 38.4768
2608 11 3.07189 36.2496 36.2017
2328 11 7.52789 37.5159 35.9872
348 1 8.50034 31.9632 36.0442
1149 9 8.95292 36.2811 37.0382
2353 11 5.224 34.6447 34.437
1834 11 0.613332 30.6596 38.1642
1227 9 2.49302 38.1767 36.7752
1034 9 1.92382 30.947 36.5315
2340 11 0.95682 30.4293 34.7393
1794 11 3.58124 29.627 36.7553
2539 11 2.62184 33.017 36.141
1385 9 4.71767 32.8072 35.4197
27 1 7.79547 34.9138 34.6884
1730 11 8.46753 34.2166 37.3088
1659 11 6.01987 32.031 37.0138
554 1 5.77513 29.9479 35.303
2132 11 1.49254 38.2714 38.6544
153 1 5.22895 36.5151 36.7523
1592 11 8.32397 29.5025 35.3646
521 1 0.566117 34.8437 35.7894
741 1 5.48223 33.374 38.8023
1757 11 10.631 1.80528 1.11742
2416 11 15.5965 4.23789 0.828323
2159 11 13.5234 7.93674 2.0876
2637 11 11.8047 2.3888 4.08303
1907 11 12.0425 4.90841 1.49463
1246 9 10.876 3.48229 2.52825
1470 9 13.2422 5.94985 2.96486
2478 11 15.8524 3.10099 3.84763
1523 11 11.7749 6.50231 4.35085
155 1 18.7799 1.87482 3.28646
2198 11 14.4789 1.0198 1.26937
1872 11 16.7319 9.69926 1.1074
2339 11 17.0851 6.41057 3.11379
1117 9 15.3697 5.02669 2.79186
1294 9 11.5489 8.246 3.15639
1688 11 17.9064 1.47058 1.20555
1300 9 16.0512 2.31743 1.76076
708 1 15.5733 8.85042 3.01948
2048 11 17.8365 9.37297 4.4089
917 1 13.3953 2.97029 0.44541
2935 11 10.2336 8.55885 1.52806
945 1 18.0928 7.751 0.897323
1875 11 17.2496 0.269024 4.70277
1157 9 17.0222 7.53741 5.09017
1871 11 11.3876 9.88636 4.41033
45 1 13.4175 9.22487 4.99177
2484 11 10.2542 7.54385 7.48888
912 1 12.8172 1.28823 8.48495
2951 11 18.709 6.8381 6.17234
63 1 14.0663 2.21661 5.56847
1114 9 18.9834 5.16554 7.78557
1900 11 13.0769 6.78379 9.13462
1052 9 11.1596 2.64576 6.20646
2004 11 15.1291 7.26314 5.94517
785 1 16.6785 2.05585 8.14332
599 1 11.2199 5.24186 7.81718
2742 11 12.7966 3.65777 7.04856
487 1 15.5227 6.01 8.45609
2249 11 17.123 4.24887 7.6995
2718 11 14.9454 0.638071 7.02445
245 1 19.3285 8.49452 7.66134
1226 9 12.2348 8.05224 7.80797
2474 11 10.8698 0.676543 6.97658
1919 11 16.9797 7.90618 9.25991
42 1 15.4938 8.89666 7.52581
2192 11 18.5205 0.272726 8.29818
411 1 10.075 7.47404 9.77388
881 1 17.5914 4.53447 5.21343
2040 11 11.999 2.31278 10.6096
2406 11 18.3391 6.66648 12.9306
1347 9 11.2943 9.00338 14.1594
2467 11 15.1096 7.57949 12.0188
2606 11 15.7098 5.3011 14.5148
566 1 18.8573 4.86811 11.4647
113 1 14.1333 3.43502 11.495
1380 9 11.1648 4.09302 11.3722
1368 9 16.0581 8.91559 10.747
1749 11 18.5416 2.79696 13.8443
1743 11 10.0007 3.31495 13.0258
2966 11 16.1745 4.52924 11.0027
1030 9 16.4683 5.91945 12.544
2816 11 14.9374 1.90627 13.6251
2153 11 12.627 5.29354 12.2993
947 1 16.7612 2.74009 12.4309
465 1 16.8786 0.514142 13.8562
354 1 10.4574 1.10666 11.9175
2585 11 16.1829 1.3639 10.4241
616 1 18.7324 8.7139 14.2407
489 1 12.4261 7.49422 11.5931
306 1 19.504 7.98137 10.6838
1761 11 10.0636 7.86179 12.7793
910 1 11.2436 5.62386 14.5411
148 1 14.555 8.23315 14.2035
2621 11 12.9867 9.7957 13.116
1813 11 9.96168 5.07484 9.95742
896 1 17.0215 4.35779 18.8612
1660 11 17.5836 1.86784 19.1311
2404 11 12.6639 3.57506 15.312
445 1 15.1867 0.657335 17.6272
2803 11 15.5666 2.98984 16.9292
1964 11 18.878 4.68649 17.1405
1738 11 18.4252 8.49525 16.6982
2954 11 12.8137 5.96674 18.6431
2837 11 16.1654 6.66628 18.4426
1177 9 10.0651 2.73145 18.3896
145 1 13.4354 3.9352 17.6464
613 1 18.6855 6.73779 19.4079
2987 11 12.3717 7.87418 15.5814
1282 9 14.7478 3.41504 15.036
880 1 17.7436 2.05027 16.5041
508 1 17.217 6.33113 16.4229
146 1 11.3733 7.7469 17.7008
784 1 12.5825 1.22235 14.9066
2632 11 11.9847 2.37636 19.0653
2172 11 10.5676 9.77263 18.5825
1395 9 16.2812 8.5871 19.5741
484 1 13.5226 9.81883 16.5701
1448 9 16.662 4.31292 21.9597
1143 9 16.705 0.766467 20.8952
1495 9 11.3703 9.48766 22.6382
51 1 12.6916 1.03416 21.1035
2177 11 15.7981 5.27251 23.498
1337 9 11.0019 6.71263 23.0143
2309 11 12.8031 1.41106 23.4353
1809 11 14.7262 7.86849 21.0059
2907 11 18.3328 5.17624 21.0791
619 1 11.7757 4.52801 20.2187
2723 11 15.0343 4.0504 20.4596
2102 11 18.1712 8.89712 20.2607
2049 11 10.41 7.92549 21.417
693 1 13.8841 3.90428 23.8514
1723 11 16.7783 2.21453 22.5149
1767 11 12.0437 8.27634 24.2013
272 1 14.3367 7.30583 23.4569
2520 11 12.3862 5.26581 22.461
70 1 18.9406 0.85627 23.3215
212 1 17.9677 7.41118 22.2275
1357 9 14.5397 6.16028 19.7419
2517 11 18.6443 8.16893 24.4408
206 1 15.0741 6.57695 27.3941
329 1 19.0671 2.28914 26.9557
1360 9 13.6138 3.65546 26.8692
2923 11 15.2441 7.86517 25.5474
1193 9 16.823 9.1458 25.1079
1698 11 11.6523 2.75823 26.8497
359 1 10.9164 4.85812 25.6808
1528 11 18.7471 4.52033 25.569
2824 11 13.2688 5.39049 25.7507
2654 11 13.9238 8.19894 28.7982
2485 11 14.9541 2.31248 26.0052
1953 11 17.9136 2.34151 29.121
1673 11 10.4391 5.97916 27.9252
703 1 11.9459 0.983083 28.5688
115 1 17.2136 6.29117 25.0355
1857 11 18.0044 0.803928 25.5568
227 1 10.5131 2.10516 24.6835
2840 11 14.2276 4.42603 28.8044
7 1 15.7569 1.30661 28.1159
2235 11 17.3298 6.97351 28.6169
207 1 19.5222 6.79417 26.4005
221 1 14.673 9.78821 27.1301
792 1 16.8901 3.18859 25.1626
1326 9 15.7786 8.0343 29.8017
310 1 16.5256 1.55788 30.8913
2812 11 18.0482 2.46151 33.2418
667 1 12.3658 0.57899 32.0321
2359 11 19.2287 4.90933 31.0707
1992 11 12.1652 6.38952 31.6175
660 1 13.9179 7.28602 32.8396
2462 11 11.8306 2.96108 30.8274
1629 11 16.1852 7.1898 31.6443
1788 11 13.27 1.68713 34.1353
202 1 12.1111 8.50775 30.1217
1387 9 17.5884 8.81494 31.7868
1027 9 13.9087 2.87543 30.3519
1722 11 15.2612 3.57519 31.8217
124 1 15.5981 2.09899 33.6477
1289 9 10.1581 6.90489 31.8986
486 1 16.9763 4.24572 30.0116
377 1 12.9098 3.87475 33.0918
2684 11 17.6597 9.62085 33.6458
1195 9 19.1077 6.66071 29.8957
783 1 11.8592 5.1415 29.7109
2877 11 19.6264 8.32736 31.0982
1892 11 14.0402 0.853269 29.7024
481 1 19.4071 2.31105 30.966
2522 11 12.0904 6.94843 36.9107
563 1 12.4404 4.85111 35.9169
2629 11 15.6664 7.49889 37.2932
936 1 12.3201 8.72908 38.8046
1301 9 12.6876 1.48314 36.2243
2649 11 13.5286 3.12988 37.0617
1112 9 15.7105 9.54704 37.9875
877 1 18.9523 2.81588 38.2095
927 1 16.3404 4.66681 35.8254
1223 9 13.9979 7.1984 35.963
1073 9 18.2007 1.22456 34.9199
2813 11 10.5816 1.10146 36.404
1970 11 16.6026 1.85674 36.0468
2388 11 18.5705 5.65278 35.4644
464 1 17.5036 8.18154 35.5975
33 1 15.639 0.495698 37.8604
2266 11 14.3932 5.52935 34.6547
2747 11 18.8028 5.18659 38.9917
1839 11 13.7447 8.81996 34.5624
623 1 11.4028 8.58669 35.1354
943 1 10.057 6.23415 35.7002
1456 9 19.607 5.9907 37.2687
2597 11 10.2827 4.15718 34.558
2421 11 19.6123 8.13425 37.483
2938 11 17.2149 16.1345 3.66035
2009 11 16.9196 13.2919 1.39843
960 1 10.1456 11.0811 2.0856
586 1 14.8698 11.4879 1.42474
1978 11 14.1505 17.7063 4.42501
291 1 12.31 17.2639 2.3252
2160 11 10.3268 16.7823 3.86312
1593 11 12.3608 11.8612 1.67751
562 1 15.9972 17.709 2.1695
1107 9 12.5165 13.7765 1.00513
1922 11 13.4439 15.021 2.33041
2785 11 17.8275 12.8489 4.78923
1254 9 17.9762 14.1524 3.03283
2977 11 10.7065 14.6905 0.430277
2868 11 14.8557 10.984 4.04822
36 1 13.8053 13.019 3.97461
66 1 15.3029 19.6233 4.79411
259 1 14.9951 15.046 0.665684
1902 11 18.4512 17.4115 0.262686
101 1 18.8402 15.0522 0.258357
1396 9 11.4385 11.2636 8.51882
1183 9 12.8046 14.2525 6.74395
640 1 15.2328 12.5627 8.49394
1838 11 12.8245 12.9474 8.42475
1544 11 16.5453 16.7832 7.20435
1414 9 15.5766 16.3956 5.1858
2770 11 16.4529 10.9977 7.24903
2934 11 11.7418 15.9991 7.16499
75 1 12.7666 18.4119 6.38031