ITEM: TIMESTEP
120000
ITEM: NUMBER OF ATOMS
3000
ITEM: BOX BOUNDS pp pp pp
3.2391432174712165e-01 4.1816523144754711e+01
3.2391432174712165e-01 4.1816523144754711e+01
3.2391432174712165e-01 4.1816523144754711e+01
ITEM: ATOMS id type x y z
2814 11 3.24077 1.43586 4.52281
315 6 6.79672 6.00382 3.21529
2053 11 8.5396 9.47948 1.85585
620 10 7.50143 1.59092 0.911239
2797 11 5.80428 0.998377 2.22941
220 6 2.90349 6.73042 0.899866
961 10 7.69403 10.4496 3.56044
2529 11 10.5595 7.4261 4.42846
2311 11 1.42016 9.65108 4.19367
2878 11 6.49989 8.90138 4.4441
2658 11 7.55468 3.25273 2.42001
589 6 3.16791 2.56967 1.64132
1940 11 7.66709 0.457011 4.62913
2532 11 5.65659 7.56807 1.07846
1178 10 3.22731 4.8933 4.86264
916 10 9.10806 4.28732 1.39001
603 10 6.83888 9.09775 0.593557
1385 11 4.14456 4.86689 3.08817
1253 11 8.78359 6.18529 1.07552
27 6 8.93442 3.28031 5.01097
2236 11 1.21169 5.16509 4.51558
2036 11 10.6291 3.74063 2.5311
2393 11 3.74194 10.6238 1.25456
336 6 8.56751 8.11175 6.335
1499 11 2.45377 3.07193 7.48045
1935 11 6.20447 8.73563 7.8296
1596 11 3.65947 9.89888 6.05414
219 6 3.50549 8.24567 8.29003
845 10 2.38006 1.06604 8.361
2432 11 6.07645 5.1204 8.95277
1063 10 3.63167 2.93544 5.75254
1140 10 5.87147 5.09629 7.0125
423 6 9.34149 5.15702 8.51014
2746 11 8.94221 1.66776 7.52552
2923 11 2.07031 1.73359 10.2574
1599 11 4.18373 6.21557 6.29636
2660 11 5.59578 3.06158 6.22195
1354 11 9.99152 9.62853 9.35632
648 10 5.60429 9.84932 6.26843
2114 11 2.66021 6.89639 10.601
1418 11 7.54425 5.55478 5.90848
317 6 3.72322 4.1223 10.1472
2150 11 10.0833 7.4194 14.601
2431 11 7.06028 2.63914 13.9885
756 10 1.8236 4.75779 14.0584
480 6 3.93576 7.20492 12.9459
1355 11 9.53716 9.93554 12.5761
2642 11 6.49503 7.24643 14.093
674 10 0.95595 7.20772 11.5482
2239 11 0.464337 9.21578 11.2295
1169 10 6.53807 3.31711 11.8838
2887 11 3.28023 10.276 12.5805
2245 11 3.68767 4.7224 14.6703
1469 11 10.197 3.33148 14.1867
2241 11 1.52349 3.59771 12.5048
825 10 8.90412 2.32581 13.0787
746 10 5.00963 10.5302 11.1792
1417 11 8.49301 3.17894 11.0884
2160 11 5.80871 5.09279 11.8923
113 6 0.948999 9.67476 15.2511
2966 11 6.0432 8.93958 11.4854
120 6 7.1706 9.88307 13.8891
8 6 3.98347 1.9413 13.9254
515 6 8.1235 5.12835 15.5589
1806 11 0.588581 4.35571 15.6572
2588 11 1.23456 6.85381 13.6912
1576 11 5.42183 1.87332 10.9723
2444 11 9.1499 6.96364 11.0606
1819 11 9.68746 0.42955 12.5412
976 10 10.0373 8.67719 11.1201
1423 11 3.41465 1.40872 20.3332
798 10 5.86482 7.51179 16.0029
2461 11 3.79849 8.13693 18.9488
744 10 9.29486 3.64106 20.1979
100 6 8.0039 7.0024 18.867
1796 11 9.81006 5.48754 20.6862
2064 11 9.47859 9.57053 19.1164
872 10 0.920366 2.20535 15.9739
792 10 1.79454 8.81245 18.3953
2554 11 4.22255 2.8078 17.5879
1217 11 10.2762 5.73883 17.3552
81 6 3.40246 5.68903 17.8155
2958 11 0.794177 1.97986 18.0253
1157 10 6.50339 3.43773 20.1664
1667 11 7.92469 3.99597 18.6329
2528 11 1.02653 7.3599 17.2947
1172 10 2.69133 2.79279 18.7385
1339 11 6.07782 5.83115 17.147
1993 11 1.96112 4.46026 19.5877
2613 11 2.06852 10.6445 17.5983
2770 11 7.0196 9.0043 16.919
2835 11 6.63826 8.6129 20.8594
1373 11 0.764966 8.8257 20.1122
791 10 4.66569 8.8397 20.9263
1105 10 10.3474 10.3066 21.0075
1335 11 5.70759 5.18855 20.8593
2732 11 7.29692 0.542037 19.4445
2618 11 10.6387 2.32371 19.6235
1306 11 3.94881 7.92636 15.9274
312 6 6.63089 5.20882 23.4945
1428 11 7.89344 2.89948 21.7481
2570 11 7.48537 10.049 24.0161
90 6 3.31906 5.23939 22.169
1448 11 10.1467 9.54661 25.8934
2639 11 0.939418 2.23456 22.0525
634 10 1.32505 4.21154 25.8192
1472 11 1.14948 5.33885 24.1945
2634 11 4.55804 6.95224 24.9489
2011 11 4.9168 2.95769 23.2607
2696 11 8.55913 6.76796 24.6168
538 6 5.51311 0.546389 21.8512
152 6 5.09196 9.4651 25.29
1487 11 3.83657 7.75909 22.3984
1574 11 10.2047 8.73424 22.3029
1244 11 6.50358 3.36748 25.8481
940 10 5.8573 1.78588 24.665
1073 10 9.0278 8.74674 24.3997
2609 11 1.82945 9.7562 25.4236
893 10 1.85004 0.436825 21.5218
1858 11 0.951823 2.03528 25.47
339 6 1.62812 10.3291 22.4158
2901 11 7.27725 0.587305 24.0207
1885 11 4.72443 0.71752 25.843
2844 11 9.92106 3.2907 25.8335
37 6 0.77053 7.4569 26.0218
1514 11 8.62391 4.21517 28.5528
2244 11 1.46498 0.469929 31.1751
482 6 8.16085 7.44524 27.8944
128 6 1.00413 6.09956 29.6521
1100 10 4.27403 6.08685 26.7819
21 6 4.98235 2.43919 28.2937
2447 11 3.35497 4.05921 26.4674
1809 11 2.90535 7.15416 27.9052
2197 11 5.80037 5.57817 27.8449
2859 11 2.0828 1.80865 28.2182
2806 11 6.3372 9.49054 27.5685
1129 10 7.65656 3.8662 30.4922
1267 11 2.44747 3.87 31.0604
2077 11 8.14668 9.04327 30.3103
1826 11 5.67348 3.65153 30.5947
1015 10 8.32925 2.84721 26.9416
1265 11 8.06768 1.01805 27.773
386 6 4.01222 9.26694 29.1786
1367 11 8.0488 6.12969 30.7654
2683 11 4.91597 7.49443 31.2447
2988 11 1.93429 8.24002 31.2048
1937 11 1.68974 10.516 28.9035
988 10 7.19338 10.499 29.13
929 10 7.05306 6.603 34.6068
1368 11 3.22644 1.44365 34.3617
2606 11 5.17617 6.00617 34.6166
834 10 9.25932 8.84781 36.1928
2200 11 2.04955 4.4982 35.4045
1214 11 8.09445 5.1055 33.9183
46 6 4.91358 3.47775 33.3391
2446 11 6.78361 2.20623 35.1678
1388 11 4.58254 10.4908 35.2849
206 6 3.76493 8.23349 33.781
944 10 2.96458 10.448 36.4213
1833 11 7.25636 8.53468 33.2976
1077 10 0.879684 2.7506 31.5021
1290 11 8.0397 10.562 35.7511
989 10 1.72422 2.58975 35.0267
2059 11 0.803962 9.12357 34.2243
262 6 9.29156 3.52617 35.6639
928 10 6.87061 7.77974 31.4696
1991 11 10.4855 8.57442 34.6935
1652 11 7.64193 7.48791 36.478
2686 11 4.95985 0.379702 32.1166
1283 11 8.64892 2.50494 31.5762
859 10 7.7659 3.46243 39.7311
968 10 3.08347 8.38857 38.7711
1593 11 3.54788 4.2902 41.0081
2058 11 1.15999 4.12789 38.6134
1648 11 10.0622 9.00139 38.0108
500 6 6.28701 9.72627 38.0243
973 10 6.44636 1.70379 37.0609
1726 11 4.82173 2.47925 37.8887
2651 11 9.5183 3.54969 40.9787
1436 11 1.4986 1.69303 40.7486
2790 11 6.96613 5.18614 39.24
623 10 1.6786 3.90633 40.5355
1692 11 6.42748 2.27552 40.8
1478 11 8.29227 2.29006 38.1116
2729 11 4.66883 7.28521 38.6375
579 6 9.75723 6.88934 39.6926
15 6 4.44376 4.90959 37.393
2559 11 7.70817 9.00616 40.2293
1884 11 0.716564 1.48691 36.7685
2723 11 1.71571 7.94505 40.1593
1413 11 2.10277 8.42065 36.7901
2898 11 3.52291 10.4715 38.6253
1849 11 10.6909 5.44538 37.3152
2569 11 0.535619 4.98307 41.7515
96 6 10.6483 1.09873 39.2043
2972 11 4.47034 13.8516 1.97052
1301 11 2.96028 16.4418 3.46266
1127 10 5.67896 18.1902 1.82201
632 10 5.66561 11.0972 0.938491
1442 11 6.4813 17.1815 3.37432
606 10 3.47119 15.5514 1.51239
1341 11 9.77749 14.299 0.999328
1828 11 1.02719 18.834 2.40437
1315 11 0.763144 11.7622 1.58872
2705 11 6.2389 11.8752 2.96457
473 6 2.97391 12.0544 3.61432
2976 11 4.2893 19.5389 2.56263
1477 11 9.80671 16.3789 4.69022
1486 11 9.49379 13.5127 4.42606
1031 10 2.66599 18.5479 3.47804
157 6 7.02394 14.434 3.14764
2406 11 1.74533 15.2883 0.512857
407 6 8.949 18.5435 3.53597
1067 10 9.61647 11.3908 4.44628
1797 11 0.511244 13.5731 4.43917
2295 11 10.5057 17.6539 0.819193
1285 11 6.91167 19.3172 0.766391
1435 11 2.8331 18.8785 5.43065
1934 11 4.79849 16.8482 0.434572
94 6 5.54826 18.0736 5.6904
2620 11 7.73325 19.5954 6.0162
181 6 9.18631 14.779 6.93704
1220 11 1.13947 12.4209 10.1132
995 10 5.61585 16.1006 9.14751
1862 11 5.39606 13.8971 8.66751
84 6 2.23442 16.3353 6.36754
2347 11 7.55761 16.6839 8.90113
722 10 5.26454 13.6455 6.61024
392 6 9.87532 19.5427 7.70797
2285 11 4.29515 17.2116 8.13695
2074 11 6.52871 11.7564 6.48985
2545 11 0.690525 14.3782 7.46508
1404 11 8.5669 13.3812 9.27669
174 6 2.36788 11.9348 7.71718
2497 11 4.34933 10.8114 9.40761
769 10 1.61059 19.4389 8.8974
33 6 7.46644 10.8627 8.87395
2700 11 10.1801 10.81 6.30813
2468 11 0.45119 18.0626 7.66011
2267 11 1.02724 15.908 10.2941
2906 11 6.50557 14.9056 5.74408
2778 11 3.47677 13.5696 5.83878
2822 11 5.92224 19.6622 10.5156
869 10 4.34039 11.8793 13.6743
1258 11 5.91203 12.2489 12.1229
1535 11 8.48032 18.113 13.0085
545 6 8.2781 15.8 11.3517
1844 11 5.50253 11.4062 15.3159
543 6 5.9314 14.0802 15.3199
1545 11 5.17781 16.029 11.1501
483 6 5.8142 19.0397 13.537
1841 11 9.95915 20.411 11.595
986 10 2.55094 20.4057 13.5814
894 10 8.20359 16.7835 14.6269
1318 11 6.37451 17.0246 15.2948
2644 11 3.2898 13.5646 13.8806
2750 11 8.33254 14.8262 14.0893
1836 11 2.81038 18.4324 13.7282
735 10 10.5806 18.4293 11.9206
531 6 3.25311 18.3207 10.9555
93 6 3.23137 14.0604 11.1172
1704 11 3.00199 21.0116 11.5473
1488 11 0.570934 21.0034 13.8218
2999 11 9.9062 13.2296 10.8006
2084 11 0.507519 19.1061 10.8716
1738 11 6.00649 14.355 20.4512
570 6 4.62261 10.8108 18.0475
2275 11 9.1147 10.8039 16.0422
1650 11 4.60482 20.6753 17.0332
2176 11 7.21851 11.7487 18.6782
2125 11 8.26556 16.9929 20.6272
1010 10 5.23599 15.1325 18.5169
1201 11 4.24813 13.7269 17.623
478 6 6.89962 18.2654 18.0389
2487 11 0.83634 15.8787 17.1372
1079 10 7.91397 13.9119 19.6354
1610 11 4.42151 16.9976 18.5265
1303 11 9.4959 17.1408 16.1025
770 10 9.14068 11.3329 17.9899
2287 11 7.36185 15.2961 17.9117
1962 11 7.8066 20.1507 16.3318
1736 11 7.11233 19.9542 20.6301
1603 11 10.1608 12.9821 18.5828
3 6 2.8739 17.4091 20.8648
285 6 10.4663 14.525 16.125
2376 11 3.29619 14.9105 21.5675
2215 11 1.10945 16.3086 23.5807
2367 11 1.86309 13.1107 24.0425
1961 11 9.53575 11.8578 21.9281
878 10 2.54462 15.0598 23.341
896 10 3.67161 13.0541 25.144
844 10 8.93765 15.0716 21.4604
547 6 5.75347 17.9342 25.0442
2876 11 5.10194 11.9644 24.247
2290 11 5.41718 17.5361 22.3726
1710 11 4.18433 15.1257 24.7354
1160 10 7.17253 18.3969 21.9252
1611 11 7.8929 14.6491 23.0885
2583 11 3.00233 18.8084 25.6219
1998 11 8.35297 18.6829 23.5688
1278 11 1.72031 19.5697 22.5278
582 6 6.9162 11.3698 21.4864
185 6 1.07885 20.8906 25.6057
158 6 8.7876 12.2375 25.6604
225 6 9.99935 20.643 22.7103
2995 11 4.26599 20.7203 23.5224
256 6 10.2876 16.9084 24.2115
2884 11 4.1619 10.7797 21.129
1783 11 3.47367 12.3052 27.1975
963 10 1.59211 11.1344 26.8976
2343 11 7.68882 18.4743 30.8754
2003 11 4.00773 15.4914 30.5858
1915 11 0.474683 16.2609 30.4789
1382 11 8.39014 15.9263 29.1728
475 6 6.99164 13.8485 30.4064
611 10 6.79945 20.13 31.1487
2505 11 8.67099 11.7794 28.5867
1312 11 8.62194 17.2859 26.305
28 6 2.13179 13.0961 29.7754
1106 10 8.60296 15.5387 27.2066
202 6 10.6196 18.4407 28.1631
1941 11 1.60905 16.0136 27.2361
2494 11 4.676 17.1235 27.8855
755 10 2.88053 17.6427 27.2377
2098 11 1.81769 18.8817 28.8151
1686 11 5.81263 11.3862 30.3161
1337 11 5.20771 20.4723 29.9119
587 6 3.70405 18.2662 31.0504
2170 11 7.18346 14.3444 26.5401
2598 11 3.75681 14.3625 35.7068
813 10 9.38718 14.1615 33.4455
1852 11 9.16664 19.2516 34.3493
942 10 2.9094 15.4872 33.9466
1771 11 9.2504 12.4362 32.3117
1410 11 3.29439 12.5075 32.1042
2491 11 7.97653 13.9672 35.3519
1869 11 4.28581 21.0324 36.1292
1840 11 0.976063 15.1058 33.7531
383 6 6.59138 11.3503 32.9779
2709 11 2.4503 20.4393 33.1145
764 10 4.07664 14.3955 32.2588
330 6 0.968361 11.8482 33.1541
2251 11 5.94152 14.3022 32.8827
1823 11 3.4722 17.3605 33.9196
355 6 6.73572 16.759 34.3128
1813 11 5.63914 19.7258 33.3224
2069 11 8.77762 15.7619 32.5485
2097 11 0.501828 19.356 35.5309
659 10 4.23258 20.9748 34.1497
2380 11 1.56367 11.8022 36.0897
182 6 3.40609 18.5258 36.5751
956 10 9.62043 18.5296 36.3586
1013 10 8.64661 12.3931 36.6244
1739 11 5.43608 16.6226 37.5919
1116 10 9.6181 16.127 41.3733
372 6 0.564601 14.6849 36.8184
241 6 2.27561 12.395 40.8396
370 6 6.4919 20.0366 38.5844
2821 11 10.5794 12.5782 37.0946
560 6 8.13327 15.5486 38.2816
1647 11 3.92758 13.9525 38.957
274 6 2.2315 18.1718 41.2442
2553 11 7.76077 16.2672 40.8688
2348 11 3.62978 19.885 39.2169
122 6 9.26 11.1855 39.7787
1590 11 2.22072 16.6594 37.9308
1218 11 6.1728 12.1098 40.8694
1715 11 7.51476 12.6572 38.2609
1056 10 3.817 15.3798 37.6134
2501 11 7.82139 18.0587 37.0178
1645 11 10.3126 20.4354 37.084
334 6 3.86285 29.1103 2.37286
723 10 1.69076 26.3997 1.37538
799 10 7.73838 21.3845 5.05805
1433 11 9.25494 27.648 2.27258
536 6 5.61155 21.9277 1.9207
2308 11 2.31136 26.5961 3.24833
2266 11 6.2831 26.2485 1.72035
2014 11 1.09598 29.8035 2.50759
2235 11 7.20379 29.9394 4.51
586 6 4.88975 25.3792 4.19858
871 10 7.99354 26.1502 2.78417
1730 11 4.57604 27.9665 4.81201
2607 11 8.83382 24.4188 2.84059
243 6 10.0184 29.2123 4.53949
2872 11 3.3417 22.8216 3.17511
660 10 1.8765 22.6528 1.75141
1835 11 8.40496 21.2722 3.15334
1616 11 7.56523 26.4462 4.96003
2288 11 5.81714 22.4132 4.93822
2458 11 5.60325 30.2953 0.476516
1674 11 10.1612 21.1274 0.86775
822 10 6.48334 28.2489 5.33595
600 6 2.1081 21.666 5.20176
2899 11 2.28381 24.5403 0.570227
2249 11 4.09553 28.7802 9.18085
789 10 7.86789 23.4699 7.7116
951 10 5.50482 29.8847 8.27788
627 10 9.83313 26.0287 6.74582
1822 11 4.81895 21.5392 7.82483
852 10 6.14736 21.3847 9.61762
1317 11 6.84995 28.2604 7.51447
2118 11 8.4122 25.2532 8.52056
1829 11 8.99263 22.8478 6.12588
476 6 5.57115 26.4647 9.66748
2426 11 10.1692 27.891 7.23965
1658 11 1.90524 24.9175 9.53164
1293 11 1.01216 24.1327 6.43867
2318 11 1.12921 21.3413 8.53566
1947 11 4.52649 24.9759 7.18885
913 10 5.61213 23.3111 7.03614
188 6 2.76197 28.99 6.78498
1860 11 8.24139 21.8041 9.12523
1438 11 6.66667 31.1177 9.36426
642 10 0.648128 25.3126 7.96578
2667 11 0.427193 27.24 7.56121
2810 11 5.83635 23.1048 10.6278
149 6 6.70021 29.8886 12.3018
1520 11 2.95464 26.9703 15.4108
2338 11 6.48803 28.0923 14.7516
2205 11 8.04317 25.0663 13.8127
2550 11 4.00645 31.1715 14.9725
458 6 10.1455 27.1969 13.1959
1256 11 5.14247 25.8759 12.36
346 6 5.23187 25.0954 15.5152
2323 11 5.75976 21.8986 14.2713
524 6 8.27523 22.9295 11.9855
955 10 0.431695 25.0427 11.2036
1799 11 1.22678 23.9229 12.5767
1131 10 3.86427 21.6242 15.1756
1184 10 6.88206 26.5454 13.0098
1471 11 7.92125 27.5687 11.5822
2962 11 2.79102 23.2128 15.7231
1548 11 9.69239 22.3175 14.198
1454 11 1.03348 31.0826 13.1865
882 10 0.815549 21.131 11.5747
592 6 0.736828 27.9293 13.8731
1238 11 4.02144 30.9602 11.6121
1324 11 7.31475 31.4288 15.4977
2768 11 1.01858 30.5769 20.4076
562 6 5.73277 27.6235 19.8654
1393 11 7.22556 26.3525 17.394
572 6 9.19443 24.5267 16.1226
337 6 9.23496 30.0316 18.8497
2454 11 3.95877 25.7708 18.2814
1168 10 1.5291 28.7387 19.8087
965 10 7.48292 28.1868 16.5166
624 10 8.50302 26.0067 19.1271
2212 11 9.09268 27.605 20.1902
2022 11 10.1484 25.0169 18.6331
838 10 6.36076 21.4532 16.3088
2106 11 6.79967 29.5268 17.8373
2145 11 2.76488 28.8757 18.1168
1059 10 2.57312 26.7882 17.311
2340 11 9.39985 28.4852 16.2345
2503 11 7.31899 24.9361 20.3738
1375 11 6.8615 23.1804 17.1153
313 6 3.14699 24.7219 20.5684
502 6 8.14088 22.1778 19.2881
1446 11 0.421426 24.2782 18.7822
1756 11 3.14001 21.8462 20.3592
2928 11 10.5816 21.8579 17.3765
1060 10 0.47223 26.1141 17.9792
1981 11 10.6889 22.1455 20.6107
1581 11 4.69891 26.2657 22.5394
1048 10 2.55809 21.4181 22.165
2149 11 2.26251 29.1073 24.8668
432 6 8.9824 28.2289 23.1784
1054 10 5.93957 25.072 23.518
2706 11 8.6203 30.5397 21.4242
1688 11 7.50875 25.9914 24.3128
2259 11 7.03662 29.5646 25.1021
141 6 1.25552 26.0229 22.9204
1543 11 1.77126 22.8942 23.0768
1422 11 2.28933 25.9996 25.6108
2116 11 9.81465 23.0452 24.0483
2096 11 6.44944 23.0818 22.4491
607 10 5.64625 22.0996 24.1559
1690 11 5.32658 29.5997 21.6616
1207 11 4.83451 23.9628 24.954
428 6 10.5189 24.7398 21.4299
279 6 3.14821 30.9845 22.6917
966 10 2.1195 30.9695 25.604
2739 11 9.91068 28.005 26.1088
2344 11 6.77843 21.2627 25.581
532 6 8.31013 23.9453 26.1548
1047 10 6.70447 31.0406 21.3481
378 6 4.85246 27.5918 25.6811
2867 11 2.5287 27.6813 21.2155
639 10 10.3121 28.8061 28.0964
1321 11 2.99204 26.4401 31.2811
1000 10 3.19187 29.7624 28.7965
729 10 3.00681 26.2575 29.261
2100 11 2.89571 30.4329 30.6656
614 10 1.72412 24.3504 26.6906
1194 10 8.85981 22.7476 29.6413
1328 11 5.02795 29.7543 28.0845
2710 11 1.3529 25.0737 28.8625
1702 11 8.13123 29.3336 28.4131
2671 11 9.89899 29.2671 31.3159
1920 11 4.73267 25.6399 28.5095
1577 11 2.16659 28.0338 28.2421
316 6 4.92516 23.3772 30.3781
2578 11 7.47442 23.8528 28.8446
1546 11 10.2969 23.92 30.4491
1930 11 2.1484 22.9528 30.9732
1074 10 7.79783 28.2997 26.5522
1922 11 2.80687 22.7213 26.8706
1434 11 7.2579 26.9782 30.8711
1326 11 1.8971 31.0695 27.7196
2076 11 9.61682 21.3327 28.4909
892 10 2.45859 22.5121 32.9333
1485 11 4.56122 22.8959 33.431
2319 11 5.61634 29.8411 35.2489
2294 11 7.80124 21.9869 36.0775
594 6 4.0675 28.9272 32.5595
1401 11 0.548098 28.3872 32.6983
1491 11 7.63311 24.5041 33.0049
97 6 3.94166 24.4216 35.75
1864 11 8.19563 27.8181 33.7553
2685 11 1.2528 23.2809 34.3137
2067 11 5.02069 26.5803 33.4659
238 6 8.84936 24.624 35.4074
662 10 6.88727 26.3012 32.8585
2832 11 2.5243 26.9333 35.1204
1681 11 6.6724 30.2162 31.9427
1952 11 2.21131 30.8538 34.2289
1170 10 0.402877 30.1705 33.7
557 6 0.445088 25.3341 32.4141
431 6 10.6078 29.2292 34.2701
3000 11 10.6431 22.2627 34.4343
937 10 7.98933 28.7995 31.8794
1139 10 1.14409 26.8066 36.5816
1175 10 9.3972 21.1531 35.3438
1909 11 8.01317 21.8363 31.5149
2109 11 5.36984 22.2932 40.6748
2191 11 9.73923 28.4292 39.5875
2330 11 9.74809 31.1078 41.0008
1241 11 0.860995 28.4497 37.7365
2617 11 7.6779 27.2346 37.1001
1547 11 6.09683 26.0412 39.9984
826 10 3.61115 21.6143 40.177
2498 11 6.28847 24.3099 37.0538
154 6 3.35589 26.047 39.732
1659 11 2.87786 22.9856 38.9371
2262 11 8.35577 22.101 41.774
2697 11 9.33686 25.0869 39.1003
1516 11 3.22012 31.419 39.654
875 10 9.30926 27.0261 38.2861
745 10 5.99616 26.1468 37.9859
1646 11 1.68065 25.1846 37.8675
1636 11 6.24874 30.6248 38.7954
2753 11 4.47427 27.1399 37.2744
967 10 4.79914 29.9083 40.1895
413 6 1.35405 21.7347 36.7243
1656 11 2.56995 27.7934 41.6648
1871 11 1.85762 21.3707 41.7023
1663 11 8.8968 21.9305 39.7983
135 6 7.64011 28.2676 41.5826
1926 11 8.95973 30.1662 36.9077
324 6 3.24476 29.4654 36.7127
1007 10 4.84699 37.4344 2.02535
302 6 10.4712 35.9613 1.83856
616 10 8.19292 33.3968 2.9896
213 6 1.69177 39.208 3.88568
1553 11 2.99571 40.9691 1.77197
2449 11 7.42955 37.5624 5.17564
2524 11 3.77927 37.3433 3.73591
1513 11 6.24596 36.0077 1.78462
2610 11 6.09388 39.2616 2.19352
2157 11 6.3467 32.9314 3.50119
66 6 9.54745 40.6636 1.89729
30 6 5.69087 35.4846 4.67858
2661 11 9.11894 34.6596 4.12932
1251 11 2.83083 35.0236 0.71901
2985 11 9.0224 38.0887 0.793398
1539 11 8.32743 34.038 0.956457
2210 11 3.3778 32.3285 3.11181
1148 10 4.87639 40.8057 1.13882
492 6 5.05755 33.4568 0.772436
694 10 9.97484 32.477 0.971169
489 6 1.17393 35.3387 3.2315
2824 11 9.38924 31.5769 2.82065
808 10 1.35562 31.7141 3.05815
2024 11 1.5433 37.9101 0.565404
508 6 5.17365 40.6155 4.88986
910 10 2.90799 32.7799 5.1447
2752 11 1.06901 31.7717 5.19754
484 6 6.62419 31.9963 6.23108
1570 11 4.57897 35.3469 9.17293
1524 11 10.5196 36.0026 9.57896
1126 10 6.57092 35.3715 8.98913
2292 11 3.34728 38.7645 6.16782
2028 11 3.0289 38.7023 9.36655
319 6 9.54664 32.6408 9.65515
2590 11 3.93324 31.687 6.4268
2718 11 1.30585 34.2354 10.2904
1945 11 0.631242 32.3449 8.33304
486 6 2.38246 36.5584 7.73048
949 10 10.3119 39.2105 8.31231
1936 11 7.34847 37.3862 8.53391
1082 10 8.14949 36.5723 6.71047
2649 11 10.1587 36.4333 6.38675
2786 11 7.48495 34.5674 7.21355
2680 11 7.99449 40.0217 7.46514
733 10 2.92257 39.788 7.74526
467 6 3.37119 32.4059 9.20013
2717 11 1.08859 40.9701 7.62072
608 10 8.765 41.5952 6.3255
1522 11 10.3363 39.8211 10.2288
1370 11 9.41498 31.5188 7.02994
1612 11 7.42253 34.55 10.5909
2742 11 4.25834 41.4757 8.00916
2744 11 3.07223 34.7633 5.51442
1985 11 2.08596 36.8966 12.1775
647 10 2.42531 40.3698 14.2418
2016 11 9.27504 34.0318 14.592
2745 11 6.94438 40.4472 13.9552
978 10 7.46049 38.5383 13.062
685 10 1.51917 34.7612 12.241
1032 10 9.0778 40.5764 14.0812
198 6 4.59273 40.6246 10.8565
1464 11 6.7774 38.6385 11.1843
780 10 2.28082 37.5633 14.2148
922 10 3.00216 31.7218 13.0911
1653 11 3.29592 33.9419 13.1489
1376 11 3.94623 38.8569 14.0327
462 6 9.38091 35.9487 12.2147
2387 11 6.2502 33.3569 13.3127
1159 10 5.48838 32.599 15.1229
1359 11 6.60848 36.9903 14.0395
927 10 8.12121 32.6194 13.9899
529 6 5.16621 36.3573 11.9722
2684 11 9.55582 38.6115 13.4046
71 6 0.752344 39.3102 11.1652
2883 11 2.36108 36.3199 15.6255
1552 11 2.7303 41.5135 15.8261
1691 11 9.09027 31.4818 12.7165
2305 11 2.33697 41.3807 12.5142
1675 11 0.700817 39.0194 14.4698
1946 11 9.4192 41.0891 15.856
1544 11 7.83693 37.9401 16.7454
165 6 5.07261 37.701 16.5292
1801 11 10.1678 39.6688 18.6913
1291 11 1.20223 35.0574 18.3045
2669 11 5.37359 40.4085 17.4183
1057 10 6.52509 40.2139 18.9771
540 6 2.75094 40.0267 18.575
1066 10 8.23068 38.7649 18.4522
2225 11 5.99976 31.7634 19.4569
1348 11 5.7357 39.4167 20.6553
2953 11 9.24082 33.2602 18.8183
2873 11 3.73724 37.2574 18.8937
196 6 9.54932 41.6676 21.0606
907 10 1.88967 36.7214 19.3233
278 6 2.91522 33.0977 18.0811
537 6 7.84099 35.0108 16.9885
2032 11 8.67176 37.1164 19.88
1632 11 3.44346 33.5645 20.9705
2992 11 5.14811 33.8939 16.5722
1191 10 10.4493 38.228 20.374
773 10 5.41409 33.4548 20.7392
1420 11 6.40859 34.9978 20.0848
1458 11 0.810376 38.291 18.2668
1565 11 0.790882 40.8824 20.2922
1901 11 0.439337 32.1745 16.8167
761 10 4.27172 37.2726 24.994
877 10 9.49061 35.3794 24.1013
2702 11 7.67755 35.0592 25.2909
2286 11 1.45579 36.4742 21.2822
1957 11 9.90232 39.0952 22.1652
2840 11 8.3433 38.4903 25.1447
1519 11 9.81482 33.4694 23.1808
533 6 7.37049 37.6654 22.5611
2009 11 9.9595 31.6519 26.0392
1804 11 2.81454 40.6823 22.7548
2952 11 3.58566 32.1934 25.1684
283 6 2.24843 40.611 25.5761
2399 11 2.51175 37.9001 25.8003
2415 11 4.84479 38.5815 23.463
53 6 4.25207 36.4306 21.5928
1805 11 6.46467 32.7345 22.5209
1932 11 4.29456 35.4164 24.2655
43 6 0.681455 38.8389 22.6459
2315 11 0.380709 35.1884 24.7754
2093 11 0.493169 32.9287 22.1773
227 6 6.94256 40.6324 26.2485
332 6 3.20648 38.1184 28.7441
2186 11 6.71787 36.4524 29.753
1233 11 8.21362 33.3142 29.5172
697 10 0.835963 35.2336 29.6064
2369 11 1.16987 39.9763 28.6128
1004 10 6.36809 34.32 29.3289
2858 11 5.62648 33.8594 31.1159
885 10 8.368 36.6199 28.4184
796 10 2.15625 41.6095 29.251
2556 11 5.48061 37.5146 26.8382
2537 11 5.26807 33.893 27.7722
2115 11 2.83675 35.0905 29.8707
957 10 4.88151 40.3121 30.8209
1400 11 9.30375 38.2672 28.9441
1141 10 9.56808 34.7009 28.5342
77 6 9.71627 41.6681 29.9752
2481 11 6.67245 39.7186 30.1602
573 6 2.46744 34.4067 26.3304
2079 11 4.22538 41.1123 29.0456
2546 11 3.43628 39.0111 31.426
280 6 6.90952 31.6449 27.0125
1439 11 0.432372 37.0681 29.0465
709 10 7.52006 36.9645 26.2824
794 10 5.34303 31.7929 35.2419
1118 10 10.254 41.0761 33.5495
762 10 9.13697 32.0293 36.1284
766 10 4.6439 40.5346 36.4592
1307 11 8.23927 35.4809 33.2
2919 11 9.61124 41.4891 35.3185
1657 11 8.89367 40.6536 32.1947
2843 11 7.09238 32.8413 36.1367
178 6 6.82713 41.1656 33.9512
1867 11 5.6564 38.6802 33.6281
343 6 3.16961 40.2505 33.7273
523 6 4.6898 36.3179 32.2291
1310 11 5.5624 35.7821 35.1758
1582 11 1.09774 40.1324 35.3254
2 6 7.66841 32.6062 33.043
464 6 8.38287 35.5618 36.158
1151 10 6.0015 37.6942 35.2725
1302 11 4.87118 32.6998 33.5429
2440 11 2.25884 37.2994 33.4731
1121 10 1.0534 36.1318 34.539
1723 11 7.93217 38.1838 35.5638
357 6 0.41359 38.6105 31.4476
2389 11 9.912 31.9295 34.2632
682 10 10.2832 35.6444 32.9717
2551 11 1.30266 34.1824 34.2048
166 6 2.35832 32.9993 31.9054
558 6 7.82495 38.0471 32.1372
512 6 4.15509 35.3306 37.6814
2473 11 6.46781 41.1165 37.3689
1630 11 7.93898 36.0231 39.3204
815 10 4.86367 32.1806 38.5835
2623 11 3.19911 40.7984 38.0857
2654 11 1.93142 33.9127 38.6412
1854 11 10.0477 33.4342 37.2265
460 6 6.89099 38.303 40.553
2640 11 4.89593 38.371 36.8132
1735 11 5.06363 40.8226 40.6235
516 6 1.982 40.231 40.6664
61 6 9.33478 39.5665 37.2664
2317 11 5.66206 33.7687 39.4672
982 10 1.2774 40.9267 37.1331
2146 11 8.95503 40.1576 40.0409
1202 11 4.16594 37.1847 39.9994
1096 10 9.8137 36.5566 39.3503
1130 10 10.0947 38.5684 40.6017
2986 11 3.8754 32.5603 36.638
819 10 0.554296 35.2384 37.9172
146 6 8.42952 33.2311 39.6024
1794 11 10.4537 37.0147 37.482
451 6 0.413738 33.9989 41.1437
760 10 3.26306 36.9534 41.7368
1845 11 1.63122 36.5974 36.6537
179 6 0.33909 31.8641 37.7122
873 10 13.1665 1.44452 3.97315
411 6 18.2735 7.21058 2.16227
67 6 13.0162 3.76883 1.15995
1942 11 16.6124 8.40427 4.18444
2046 11 14.2912 6.42737 2.49234
860 10 15.1035 7.18233 0.568496
1831 11 19.9598 9.05915 3.74283
2779 11 13.9628 3.22974 3.68107
1951 11 18.3045 1.42392 4.72879
676 10 14.6661 7.97451 3.82596
2626 11 18.791 4.76328 2.87273
439 6 11.2735 8.12615 2.06608
2932 11 18.4021 9.72421 1.11621
110 6 17.8373 1.87394 1.71618
1943 11 12.314 0.591234 2.1403
1523 11 11.3956 1.50196 5.13744
2301 11 13.8138 9.58735 3.10864
2450 11 17.1686 4.71525 4.12735
68 6 15.9676 10.6696 1.92408
2733 11 14.5379 0.324848 4.84204
2402 11 19.327 1.86524 8.03808
535 6 19.0359 4.71724 9.0979
2385 11 15.9618 8.0655 7.73883
448 6 13.4068 8.05585 8.92938
187 6 18.5154 8.87666 6.31711
1719 11 19.474 5.93271 6.41203
612 10 16.7058 8.76255 9.45386
2741 11 18.4014 9.77426 9.27401
1109 10 14.2825 1.9228 9.61786
1425 11 14.0166 5.28568 9.08909
952 10 13.3294 3.91603 10.3165
2981 11 13.4548 1.75668 7.81444
491 6 13.9191 4.32298 6.24796
2990 11 16.6358 4.2703 7.25857
2190 11 10.8838 7.39659 7.59021
104 6 16.3898 1.15704 6.9066
2713 11 16.2812 2.12194 9.73067
619 10 18.1332 4.49771 5.93315
1190 10 19.3069 2.50897 6.03632
983 10 11.5247 6.51183 5.88246
505 6 12.7088 9.67538 5.8838
1978 11 11.3106 3.66691 10.1666
1575 11 15.2862 9.93718 10.5849
235 6 10.9607 1.08886 9.05326
2264 11 11.2724 4.49336 6.12258
2762 11 13.6191 7.11742 5.75853
1384 11 17.7879 1.21926 13.2818
208 6 11.2736 5.43576 12.6685
472 6 12.1441 9.54027 13.9986
353 6 16.5129 3.34031 12.2288
2826 11 17.0488 9.61337 13.5223
2960 11 16.6517 7.2127 10.9967
972 10 19.3508 1.46434 12.0562
2515 11 12.046 8.2467 11.3539
2248 11 14.2502 7.88406 13.3647
2751 11 20.5766 9.83209 13.5224
222 6 12.4598 1.81064 13.0739
1868 11 20.5686 3.58168 15.4635
2060 11 12.692 5.4267 15.1216
1987 11 19.3949 6.58234 14.6494
710 10 15.766 8.68095 12.35
2852 11 19.3169 3.39805 11.4775
2121 11 16.385 5.03154 14.5619
2140 11 13.817 4.16138 12.2861
2794 11 14.1838 2.65254 14.8938
2334 11 18.1941 5.10303 15.5368
381 6 19.5355 0.596615 15.7186
2864 11 13.6552 0.449074 10.989
2378 11 21.0502 1.07957 13.0217
1149 10 14.8022 1.18649 16.0813
212 6 11.8809 2.93165 17.1701
1975 11 16.7004 1.98292 16.8215
2373 11 16.5719 4.36224 19.1807
237 6 11.336 7.47176 19.4049
1153 10 16.7924 2.20187 18.9355
1391 11 18.1964 8.44194 17.0027
189 6 15.1501 7.12731 16.0082
2085 11 15.5495 7.4477 19.3174
1208 11 15.2984 9.97186 17.1036
926 10 14.6327 4.4321 20.158
1504 11 13.4429 4.75934 18.6678
636 10 17.3479 10.135 17.5995
1479 11 20.5577 8.27148 19.3221
842 10 15.2858 9.56879 19.4872
1899 11 19.066 2.14329 18.8899
2725 11 12.5261 8.17403 16.8109
1349 11 17.2864 10.3225 19.7093
2614 11 12.2148 10.481 20.25
36 6 20.535 9.76483 16.2473
1903 11 19.7516 5.22451 20.2443
664 10 19.7341 3.25653 20.6148
450 6 20.6355 5.55996 17.8131
2766 11 13.4125 0.632927 17.3453
991 10 11.4186 6.71538 15.9923
853 10 14.7816 6.45567 21.0612
363 6 16.1566 3.84542 23.7584
345 6 12.7838 9.06933 23.858
1550 11 12.9416 6.91003 21.6513
779 10 13.1091 1.91774 23.7411
1949 11 15.0011 9.73564 21.7274
2601 11 20.1363 9.31936 23.6373
1897 11 13.4197 3.84695 24.3791
2187 11 18.4994 2.64027 22.0063
170 6 10.9544 5.32669 23.3479
2977 11 12.5139 6.72469 25.6561
2535 11 16.1974 6.35492 22.444
2083 11 18.0881 5.36936 24.9804
374 6 15.7491 6.85609 25.4844
1749 11 11.2075 1.32463 23.4389
1817 11 14.673 1.41598 22.4126
2875 11 15.2988 9.61273 25.9944
1226 11 17.786 1.72187 25.1631
561 6 20.6335 2.56087 23.9708
1224 11 13.8779 0.907694 25.6337
2247 11 12.5544 9.33345 27.9293
2143 11 17.7884 1.64365 28.4798
765 10 13.0871 0.411905 28.9162
251 6 12.4371 3.68916 26.9209
2987 11 12.3667 8.99904 31.1678
782 10 12.4436 7.28211 27.6316
1929 11 15.4683 9.38687 30.0008
1338 11 18.8781 5.66595 28.2105
1076 10 17.8421 4.73792 26.8431
2486 11 19.1085 10.004 30.2232
891 10 18.5531 2.48689 26.8859
2345 11 11.877 1.95714 29.1257
1695 11 14.0884 6.74961 28.8699
2978 11 15.9174 4.90564 27.3781
1044 10 13.6548 8.76043 29.7208
2177 11 20.4825 2.29845 26.8651
463 6 19.2299 3.624 30.2134
1613 11 14.9955 0.630659 29.3821
2643 11 18.5969 10.3207 26.4838
1716 11 20.5625 1.11334 30.9989
1515 11 18.0055 5.83541 31.1117
308 6 20.4544 7.50602 31.1343
1112 10 20.9672 10.5363 30.4367
1332 11 10.9109 6.53275 28.5833
2692 11 13.6076 6.50928 33.5233
635 10 19.4877 7.88544 35.3839
2641 11 15.1964 8.72146 34.9808
1994 11 18.6735 9.61767 34.818
1231 11 14.0051 3.66506 31.7694
977 10 13.1411 4.5743 33.2402
2453 11 15.5432 2.33425 35.3435
1447 11 11.4508 1.18907 32.4766
2707 11 18.9418 3.5337 33.4339
921 10 13.8373 3.53295 35.3001
503 6 16.3672 2.33785 32.6944
828 10 18.1921 5.42959 33.13
1517 11 16.5964 5.99019 34.126
2355 11 11.1251 4.58878 33.2034
340 6 17.9833 3.40788 36.4084
2296 11 19.8544 6.61999 33.7431
2128 11 12.0526 2.59963 35.9652
719 10 14.6853 10.4548 35.8396
403 6 12.6272 7.67261 36.1848
414 6 15.5889 7.1187 31.6786
335 6 10.715 6.77391 31.7642
2181 11 12.3337 9.25189 41.0413
408 6 15.2993 2.91021 39.0498
276 6 20.8169 7.1444 38.6344
737 10 13.2188 7.44282 40.7867
1838 11 16.1974 9.37507 40.2101
658 10 17.6677 4.89001 40.424
1406 11 11.9434 6.10344 41.4883
1642 11 19.0283 6.3401 40.8731
904 10 12.1983 4.19726 37.622
1976 11 20.2605 2.52185 37.5189
2771 11 16.8953 5.1516 38.554
1437 11 13.6988 7.0856 38.7906
2904 11 18.3003 3.08452 40.8619
2013 11 12.4332 3.13871 39.2926
1210 11 12.9023 10.3209 36.7165
1679 11 17.8096 0.646464 37.3928
440 6 15.9683 7.71007 37.5847
1247 11 19.4993 9.55455 39.4443
895 10 17.98 10.1035 40.6261
210 6 21.017 3.40766 40.4381
63 6 20.8456 8.53262 41.8146
2065 11 15.8341 5.13447 41.5781
2250 11 18.6256 6.77906 36.8704
1711 11 18.8623 0.445879 41.224
2597 11 14.8884 1.93204 41.79
2388 11 14.0419 5.06142 36.7943
105 6 14.2558 19.0324 3.65534
1567 11 13.7842 19.7077 0.839641
1921 11 10.921 10.9 3.08627
47 6 11.9967 14.1485 3.73408
2793 11 16.1033 20.955 2.5397
713 10 16.8624 17.9236 1.16468
2103 11 19.802 14.4073 4.28015
2095 11 18.5227 13.3734 0.665941