ITEM: TIMESTEP
150000
ITEM: NUMBER OF ATOMS
3010
ITEM: BOX BOUNDS pp pp pp
-4.2931172584794197e-01 3.4648166340391285e+01
-4.2931172584794197e-01 3.4648166340391285e+01
-4.2931172584794197e-01 3.4648166340391285e+01
ITEM: ATOMS id type x y z
215 6 4.67818 3.229 3.00993
2265 4 3.27993 0.322516 1.55811
2818 4 2.56853 7.94583 3.05148
483 15 7.31945 4.27109 0.563276
818 10 4.13959 7.64823 2.74363
371 6 7.59695 0.161326 0.841062
2608 4 0.21558 7.23316 2.5406
219 6 1.84681 5.565 3.72776
732 10 1.10469 4.55649 0.173409
900 10 7.62892 3.69384 3.50458
1231 4 6.68465 3.91978 2.20307
2872 4 1.47745 1.9593 1.89916
1535 4 5.54653 1.32404 2.40462
2513 4 4.53608 8.1744 1.33878
810 10 -0.0247569 2.48981 1.84999
2710 4 -0.0114648 4.05011 1.37248
1314 4 2.23265 5.27821 0.942609
515 15 2.48257 1.73117 0.396261
2874 4 4.34383 6.20599 3.15106
990 10 4.72232 0.0715685 2.20554
1900 4 3.96109 2.69172 0.340319
1526 4 7.62537 7.68713 3.22318
2815 4 7.7359 5.98065 0.35359
1531 4 8.33007 2.26306 3.28323
770 10 1.12694 8.33269 2.18019
6 6 3.87419 6.6144 -0.295766
329 6 6.93083 2.1917 6.45867
555 15 -0.15768 1.89532 4.84996
136 6 6.37574 6.48365 4.56268
1026 10 2.6364 2.43428 5.49279
2800 4 4.01413 5.61718 7.20741
1444 4 0.758477 5.02592 7.91581
2185 4 3.937 1.64611 5.67022
504 15 0.515365 3.26216 7.59121
2009 4 2.18787 2.92507 6.92899
1842 4 6.61516 5.67555 6.87149
2648 4 1.42694 1.24228 5.06637
598 15 3.47753 7.22933 7.45587
1825 4 0.718714 6.33488 5.75623
953 10 5.41029 5.0481 7.76709
627 15 8.21094 6.27486 7.45614
1959 4 2.58305 3.53671 4.43398
2465 4 5.41742 3.52556 7.65271
790 10 0.706 6.40084 7.23636
1354 4 1.77101 7.33962 7.88053
1532 4 6.61355 3.55133 4.6507
398 6 4.78637 1.3519 7.89435
2796 4 3.54396 8.02322 5.89742
1240 4 5.9749 -0.018912 6.51216
1161 4 2.63211 2.19887 9.90825
196 6 6.22147 3.37582 10.1737
1064 10 2.5232 2.66252 11.4817
496 15 3.30941 5.38149 12.5072
2463 4 3.21523 4.06344 11.2558
1061 10 1.83341 0.956825 9.27797
2442 4 1.26276 0.101355 10.394
1450 4 6.14545 1.23673 9.92567
413 6 6.35385 7.3324 10.555
2612 4 4.8654 6.13354 12.2682
1647 4 5.62803 5.55995 9.17157
1499 4 3.30464 1.703 12.3006
2438 4 7.23159 6.84095 12.4928
2091 4 1.08747 2.86139 11.9186
909 10 6.87611 0.343386 10.9866
2206 4 6.9859 1.04036 12.3882
2586 4 8.28207 0.0134378 10.466
1326 4 4.50394 8.17628 8.56527
1639 4 2.12034 6.69294 12.4004
1157 4 6.79544 4.34895 12.3482
2085 4 8.33849 7.3137 8.85844
2288 4 0.676824 1.65328 8.44728
1665 4 -0.211426 8.31387 11.8631
5 6 3.90025 -0.370326 10.9524
1312 4 2.86566 0.285078 8.42478
1898 4 6.09274 5.44501 14.4093
224 6 6.37057 2.52911 13.8462
195 6 5.41379 6.57921 16.0297
2626 4 5.35678 0.676596 15.1942
2211 4 0.874737 0.887751 14.9761
1078 10 -0.410697 0.215095 15.3
448 6 3.07848 0.764932 14.3811
2259 4 0.799558 4.23816 15.7946
671 15 2.56368 4.2535 15.4773
1768 4 3.20318 5.74666 16.4482
2826 4 3.25132 2.82743 16.2311
981 10 6.29834 5.66841 12.9257
842 10 5.39936 0.0532393 16.6647
2065 4 3.24081 4.38893 13.8863
1720 4 6.10923 3.3539 16.6418
499 15 0.617803 7.16777 13.056
1318 4 6.95191 8.32698 15.7966
2602 4 1.77483 7.71419 17.0662
2896 4 0.901456 8.27447 14.4351
447 6 5.88293 6.7202 19.2606
2106 4 4.29513 3.80002 18.7338
425 6 0.975344 5.17244 20.5874
1016 10 2.7707 6.69631 17.6643
608 15 4.57661 2.71068 17.4053
2318 4 4.07578 7.37447 18.0878
2396 4 5.0893 1.06435 17.8036
1790 4 0.902612 1.44464 20.9951
2421 4 5.29729 5.12953 21.0256
2519 4 2.06202 6.03731 18.8011
2862 4 7.12722 5.54533 17.519
646 15 4.51802 3.60185 20.4657
2334 4 7.89312 3.29303 18.5833
1264 4 7.65706 8.12887 19.6297
1944 4 0.343226 7.59471 20.5375
1393 4 5.62425 2.30797 20.7682
995 10 7.37562 4.04382 17.3691
591 15 0.289553 -0.126877 20.7312
2949 4 2.84152 3.47246 21.132
405 6 8.05179 2.80869 20.8744
260 6 2.6358 8.02586 19.9918
262 6 -0.273902 7.98336 18.3813
1880 4 2.14217 3.61558 25.4242
2578 4 7.40768 0.777729 21.9181
2725 4 3.44874 6.8101 24.6568
754 10 2.52361 7.00494 23.4891
2873 4 5.10944 4.71716 23.5053
1079 10 1.28613 2.43046 24.7231
2345 4 7.41788 4.44776 22.2777
1713 4 3.44112 7.55733 22.2335
1405 4 2.19474 2.15942 23.5382
607 15 5.91441 0.19026 24.7395
1512 4 6.37502 6.82337 22.4763
556 15 5.45328 0.781914 21.6835
1347 4 5.29566 1.15359 23.463
1724 4 1.77636 5.8147 22.8752
1148 10 6.09784 5.13875 22.5067
2397 4 1.38341 1.14719 25.6317
168 6 -0.168504 5.26309 24.2125
1138 10 0.355653 -0.225004 25.3469
529 15 5.19582 8.10895 22.4289
2293 4 1.4169 8.00779 23.9131
590 15 2.40575 1.8947 21.8525
105 6 4.63668 5.38592 25.6845
2115 4 -0.106591 2.9056 24.4353
2582 4 7.6242 -0.289807 24.9801
2716 4 3.61709 0.702846 21.5699
91 6 6.93537 0.210899 29.459
1779 4 3.0814 4.49487 27.5233
2891 4 1.76546 7.06658 28.9606
1353 4 6.51801 2.15918 28.3491
1662 4 7.12715 5.60844 28.941
164 6 1.19498 1.15735 28.2659
1352 4 6.04233 6.81608 26.9956
1211 4 0.879839 3.208 27.5296
2380 4 5.57887 3.65047 26.5854
1466 4 -0.260847 -0.265389 26.8431
1425 4 4.9159 6.62692 29.3512
913 10 6.29497 6.70382 28.4623
2114 4 3.23847 0.587899 29.166
2975 4 0.879427 5.60457 26.4959
1139 10 1.7484 4.25673 26.9042
512 15 0.382782 6.76526 27.7656
1010 10 6.31418 2.35124 26.8712
641 15 3.42005 7.64943 29.2837
291 6 4.63755 3.58098 28.8906
2367 4 5.51653 1.05081 26.212
2176 4 6.92625 8.12125 28.9751
1761 4 -0.332187 8.00143 26.8215
2877 4 7.64206 2.34008 26.0356
701 10 3.77404 -0.0934205 30.3802
1059 10 4.21794 4.21525 31.9888
832 10 7.62737 6.68289 33.9055
2098 4 6.21016 7.19332 33.8023
452 6 7.65268 4.50302 30.9492
1742 4 8.19246 5.74325 32.8872
2236 4 1.52608 7.52683 32.0114
280 6 6.32756 -0.115415 32.8091
2196 4 3.77271 5.33373 32.87
2403 4 6.03285 1.32296 34.4233
1279 4 0.351582 5.32587 34.1599
2897 4 3.06587 3.70209 31.0759
2402 4 2.85425 0.407995 31.6219
1682 4 4.43926 2.71453 33.0043
2400 4 5.51237 4.27006 31.249
116 6 1.42693 5.36059 31.5348
2429 4 2.08658 0.696378 34.1046
2419 4 0.0600679 3.67067 30.8514
320 6 1.59882 2.2761 32.1415
2136 4 3.67006 8.28251 30.8888
2475 4 5.26009 -0.0446159 30.7168
1147 10 5.1821 2.57828 34.3413
1866 4 8.1557 0.400284 31.39
2639 4 0.0499942 0.708184 31.5036
1969 4 1.50151 3.14698 34.6031
2588 4 5.94973 3.93362 34.5954
709 10 3.91525 12.9144 2.43785
125 6 5.07198 16.5891 1.76378
1568 4 6.95341 15.1313 1.48406
101 6 5.6658 10.3949 1.82743
580 15 2.30236 15.1672 0.902307
624 15 7.10929 13.5361 2.34095
1706 4 7.06851 12.2366 0.975793
2622 4 3.78192 14.2432 1.37658
1624 4 0.859332 9.69867 2.79281
2269 4 7.39313 10.1822 3.42637
170 6 2.72469 10.1223 0.268116
2192 4 3.63028 11.5858 1.72695
2510 4 5.48501 12.9985 2.79413
1687 4 2.9824 16.6238 0.114415
597 15 8.04979 15.6928 0.206014
2528 4 2.90278 13.0814 3.55513
2404 4 1.26189 15.6884 2.23697
2058 4 -0.20971 12.7119 0.627002
2738 4 4.76435 8.62957 3.80298
772 10 -0.267895 16.1834 2.10395
1943 4 1.30506 8.45355 0.668051
2119 4 1.53566 14.2463 -0.390165
2660 4 4.48238 15.9696 3.89533
2848 4 6.75392 16.8477 -0.410179
172 6 2.06265 10.9356 4.32162
124 6 2.26524 14.9203 4.71423
719 10 4.5552 9.14974 5.37455
1089 10 5.34442 16.7063 4.88442
2261 4 6.86877 16.8655 4.40081
2650 4 5.52223 15.8428 6.2588
2170 4 5.91761 8.93 5.88404
2328 4 7.21246 12.2206 5.92897
216 6 7.17312 10.281 6.95739
1035 10 4.34492 14.8972 6.89415
2252 4 1.10646 10.6844 6.27206
1976 4 0.775138 13.8343 5.88044
2633 4 8.10049 14.4773 6.42215
162 6 3.02305 11.813 6.95689
2774 4 3.06627 15.6994 7.03899
1529 4 3.95211 10.4847 5.29149
2153 4 4.16498 13.5627 6.29878
2641 4 7.37453 14.006 4.10999
805 10 8.01028 13.33 5.35965
1088 10 -0.285105 10.6977 6.87131
858 10 -0.413228 13.6916 6.77112
2982 4 -0.266116 14.2225 8.30156
2564 4 4.65256 10.7923 8.24306
1578 4 -0.315933 10.2779 8.30547
2494 4 -0.364686 17.026 5.46552
1048 10 5.43131 15.7318 9.5284
1127 10 -0.299865 9.83992 12.3588
901 10 4.36001 9.65887 9.1467
2917 4 7.36853 10.8809 11.4678
2102 4 1.26765 15.1498 10.3638
1462 4 1.95882 12.5236 9.10051
1751 4 8.06013 11.8186 8.63405
1057 10 5.82088 10.5964 11.4997
466 15 2.00649 15.0684 12.0256
630 15 0.792308 13.5716 9.61757
1694 4 3.01932 9.73464 9.90154
455 6 2.5087 11.5778 11.0201
2512 4 6.61418 14.9535 10.2107
1833 4 5.18196 11.8797 11.3031
2445 4 5.51732 9.54878 10.2971
1803 4 4.98465 14.6476 8.4822
1729 4 2.68636 13.5124 12.4858
1439 4 4.26935 15.9124 10.5618
1565 4 1.0639 10.5143 12.3826
2245 4 -0.274656 12.9198 10.8645
1283 4 5.7949 17.0278 8.89085
17 6 0.919584 9.29122 9.61856
114 6 6.04211 12.6664 8.75938
2976 4 3.07011 16.396 12.5981
387 6 1.58563 17.0029 8.43085
315 6 0.611642 12.7235 13.7741
673 15 6.74253 14.153 15.0071
1690 4 2.5943 13.5519 15.1047
1869 4 7.44471 12.6683 14.506
2476 4 7.93365 15.4354 15.0456
2696 4 6.22123 14.2178 16.6931
633 15 3.88425 13.2152 13.8178
353 6 2.99112 16.8932 14.8485
548 15 4.67409 10.0763 14.2512
1819 4 5.30311 14.2739 13.9994
2016 4 2.2244 10.4593 16.2551
1325 4 0.665063 15.1297 13.2012
860 10 6.97001 9.7411 16.1022
2599 4 5.73224 10.5844 15.5633
2783 4 3.69367 11.423 13.818
964 10 -0.111273 16.4747 13.5138
614 15 2.12502 8.74821 15.5964
1599 4 3.72826 8.731 14.7027
1169 4 2.89841 15.6649 16.8817
2718 4 5.5942 9.61743 12.7702
610 15 2.77645 13.8751 16.7668
2107 4 8.17105 10.4529 15.2458
531 15 -0.0638794 17.0665 16.3585
1617 4 2.31989 15.3479 21.2594
744 10 2.40184 16.6018 18.038
1569 4 0.582883 10.3676 18.8097
1995 4 0.81786 12.2426 20.5352
948 10 7.28865 9.22176 20.5982
1287 4 1.41938 12.9529 17.5818
433 6 4.76571 15.9355 20.774
2855 4 6.34795 12.5063 18.5865
833 10 1.17996 10.7599 20.2951
498 15 7.99142 11.4677 18.456
401 6 4.92698 11.3058 20.1809
897 10 5.5567 13.7146 18.0263
899 10 1.07711 15.8578 20.483
1418 4 2.62084 10.452 20.3387
2000 4 4.13375 13.1133 17.685
2957 4 5.51091 14.8039 19.0502
2186 4 7.24498 10.6661 20.0092
1626 4 7.05474 10.167 17.5578
2469 4 1.4553 15.6148 18.8184
667 15 1.1027 11.2564 17.3272
2869 4 5.56642 9.05621 20.9759
2164 4 0.288915 9.93855 21.2505
2544 4 -0.135004 14.9482 20.5851
69 6 6.13729 16.9963 18.2152
151 6 -0.344927 13.6154 18.8139
2689 4 7.10967 17.0164 20.8795
2813 4 3.08821 10.6883 23.9768
480 15 4.75739 10.4071 24.4553
2276 4 3.73808 13.5627 23.8323
2257 4 6.17594 14.2991 23.5672
1922 4 3.60602 15.6937 25.0944
439 6 7.74899 15.6083 22.5584
68 6 8.03209 12.8011 24.5872
1086 10 0.489078 13.6851 24.7071
2471 4 0.0201516 10.0446 24.4296
734 10 5.24516 13.1932 23.173
625 15 1.72845 9.61494 24.642
1486 4 5.57718 8.95396 23.8633
1474 4 5.73115 11.8199 23.9141
1024 10 3.32651 14.2305 25.2105
2585 4 0.631913 12.8259 23.482
150 6 6.51846 16.3793 25.5354
361 6 2.37738 12.8572 21.9828
1463 4 0.256489 15.1677 24.4922
263 6 2.43402 16.5914 22.9952
1664 4 1.85314 13.78 25.5933
1917 4 8.07567 9.20144 21.8696
1931 4 4.76083 12.9019 21.7598
9 6 7.92549 8.36059 23.9387
1422 4 1.97334 9.62291 26.4486
757 10 6.89604 13.7717 27.9003
1220 4 0.741627 16.3452 28.2858
110 6 7.9636 10.2635 27.4354
96 6 8.09717 16.6344 28.5747
534 15 3.43763 10.0844 27.2193
2327 4 4.87231 10.4038 26.2311
2573 4 7.6953 14.0188 29.3178
2204 4 3.10015 14.2184 28.7373
658 15 1.67945 13.9825 29.833
2740 4 5.6029 12.8643 28.45
605 15 3.95641 12.904 27.9439
1734 4 3.09944 11.4862 28.2895
1940 4 6.42876 15.1527 27.3627
2266 4 7.71632 12.9131 27.0231
2374 4 4.11124 9.00107 28.36
248 6 4.66638 16.0925 28.4431
1253 4 0.046668 14.0432 28.9589
2141 4 4.2298 13.4294 26.216
3 6 -0.103594 16.8766 26.0557
1116 10 7.65758 8.8504 30.1776
2561 4 6.63828 16.1396 30.2375
2110 4 8.26823 14.6834 31.7094
1214 4 6.00089 13.8422 31.2344
1951 4 1.26634 11.8801 33.8031
2605 4 8.09309 11.8475 33.7918
1215 4 6.77114 9.01565 31.3088
1159 4 5.87894 13.2512 34.0961
2986 4 1.94601 9.9937 31.6068
2516 4 5.85866 10.6652 34.4303
1851 4 1.50092 15.4296 30.9004
1144 10 7.11401 14.7568 30.6493
283 6 5.3241 9.08524 32.9477
533 15 3.59862 16.4502 33.4874
2834 4 3.8231 14.7714 33.2286
542 15 2.09273 11.601 32.145
1410 4 3.87133 11.996 32.1983
862 10 2.43192 16.692 30.8999
748 10 2.57452 8.5896 32.1006
664 15 4.84101 13.3926 32.5948
2301 4 1.42229 12.5411 30.7785
2900 4 3.21764 8.81319 33.4582
2520 4 3.80799 16.6673 30.4517
870 10 0.400427 13.1477 34.4199
1104 10 6.57438 11.9543 34.575
1549 4 1.17334 20.189 1.60793
2086 4 3.71339 22.4403 2.61897
2398 4 6.43446 18.5233 2.0786
1975 4 -0.0719423 24.6124 2.50971
1322 4 5.76047 19.1435 -0.283891
1845 4 3.21526 25.0692 2.52976
2496 4 3.74358 20.1933 3.51826
672 15 7.4399 25.1454 2.30841
1131 10 6.41433 19.7001 1.18897
1498 4 5.07272 20.6502 1.41289
502 15 4.25569 23.8955 1.73964
2240 4 3.88251 23.7838 0.0209428
743 10 4.68568 21.2385 2.88001
146 6 2.36029 19.0386 0.129859
2955 4 6.01169 24.1222 1.87482
1614 4 0.251052 22.1582 2.91811
2109 4 7.60373 20.5495 0.919931
829 10 0.0576607 20.5318 2.49531
212 6 8.08765 21.6321 3.17368
2880 4 5.91722 21.5432 3.70341
2364 4 -0.171023 17.5712 2.68184
265 6 -0.366042 25.1983 6.52398
1749 4 8.01728 19.5581 5.10288
2425 4 4.80345 20.5345 7.33854
2705 4 2.4058 21.773 8.32419
392 6 1.84497 23.8551 4.22367
1921 4 4.80872 18.1113 5.314
2179 4 8.01269 22.3807 5.76263
568 15 3.27583 18.9354 4.80069
2308 4 7.25488 20.5733 7.73632
393 6 5.59967 22.5803 5.80342
2156 4 0.863464 23.2224 6.73332
1756 4 2.34351 19.7506 6.05606
680 15 3.02628 20.2073 7.64899
929 10 7.01918 25.5972 5.26983
1908 4 5.63768 24.9191 5.37812
816 10 2.22313 23.0723 7.32692
2105 4 0.243516 19.9044 4.03691
2806 4 3.33773 23.2085 6.30792
176 6 3.84105 25.659 6.57883
2972 4 8.02026 25.1825 6.5238
2096 4 2.16504 17.6896 4.15635
670 15 8.26462 20.7758 6.3332
12 6 -0.150172 21.2989 6.19207
638 15 0.410824 18.1199 4.28368
2285 4 1.47818 25.7345 5.38077
507 15 8.32067 17.8522 4.79867
192 6 7.35162 18.2937 8.11827
2503 4 7.88004 24.8395 4.03076
443 6 7.79668 23.2441 12.2768
285 6 5.2498 24.4399 9.63722
301 6 5.92849 19.9189 11.9766
1406 4 -0.0729571 23.2363 9.43311
2535 4 1.56148 21.2003 12.1041
1859 4 5.89332 20.4493 9.70736
2530 4 2.73156 19.0261 8.78612
1914 4 1.91767 23.7184 11.5383
2094 4 4.54306 21.664 11.8669
1725 4 3.63159 18.3516 11.2035
1320 4 4.76015 24.1329 12.0663
1399 4 -0.0774584 17.4185 12.3288
698 15 1.28635 24.2336 9.92225
402 6 3.02279 20.2528 10.6768
874 10 4.22316 17.1227 11.7429
2101 4 2.40907 24.268 8.51315
1436 4 5.55479 17.3199 12.3277
1058 10 1.82081 22.572 12.6426
294 6 -0.253957 19.7031 12.5867
868 10 5.87162 21.136 8.38595
2324 4 8.25853 23.8939 10.1815
2854 4 5.78201 22.6439 8.36884
161 6 2.30512 19.9693 16.6896
403 6 7.18199 21.2119 15.2439
1491 4 3.65803 18.8793 15.3057
1814 4 5.85148 17.8751 16.2597
1874 4 2.67017 24.4505 15.9877
365 6 1.11641 22.983 15.8802
430 6 4.55683 23.1139 16.1575
2411 4 5.62649 22.5821 14.0153
1003 10 5.20687 19.1018 15.5748
1548 4 0.192881 20.766 16.2852
363 6 7.08598 17.3966 14.1566
1507 4 7.31506 25.3183 12.9864
1538 4 3.09188 22.8209 13.6071
3002 4 6.02401 19.396 14.2428
1190 4 0.631369 22.9844 13.6323
783 10 4.70297 22.812 12.8165
2786 4 5.44547 20.3898 16.5103
1390 4 7.87239 25.1761 15.5584
1210 4 0.676771 17.2118 14.7194
1615 4 8.1474 20.9084 12.8939
725 10 2.75843 25.8554 15.5755
973 10 6.94524 18.5801 20.8459
1809 4 5.27302 25.4723 20.9913
993 10 2.56064 21.7761 18.9059
2781 4 2.66219 22.3235 17.4437
259 6 3.1074 18.9757 20.7894
305 6 5.12457 20.6391 18.7718
2044 4 5.8281 24.128 17.929
1758 4 1.4423 17.5753 17.3601
66 6 4.0453 24.8394 19.1425
1136 10 7.0301 23.4581 18.4128
3007 4 1.01748 21.8113 19.3046
1386 4 2.89093 20.2937 19.0737
809 10 0.178025 22.9078 20.2081
1407 4 0.585611 24.205 19.3841
2985 4 3.48628 22.5659 19.8854
1177 4 6.86704 22.1869 19.1959
2026 4 5.86978 18.9112 19.7653
1342 4 8.01653 24.5702 19.0472
2922 4 0.965268 17.383 20.6341
1693 4 3.42012 17.2152 18.8223
456 15 0.844802 25.8477 20.1217
2596 4 8.23471 19.3297 20.7386
87 6 7.59793 22.0441 21.47
2140 4 8.02011 22.9373 17.1474
952 10 0.70835 19.1964 23.6143
2735 4 1.4918 18.1559 24.4
14 6 3.78002 22.2071 22.2154
2767 4 2.58446 22.5327 24.0215
1488 4 4.12853 20.1313 22.9347
2080 4 5.38526 18.4669 24.47
269 6 6.75509 23.9545 24.851
369 6 7.37745 20.0048 24.6578
2043 4 3.85741 24.7241 22.8879
1068 10 1.84768 21.7026 25.0801
1376 4 6.24013 25.7194 23.3453
1879 4 1.06897 19.5143 22.1967
2047 4 4.29808 17.6539 22.2553
2889 4 0.736694 20.5613 24.4906
2507 4 6.12345 21.7613 25.3481
997 10 5.41684 24.8347 22.3423
2251 4 6.41206 19.1544 22.2979
1142 10 4.98733 18.8352 23.0409
1840 4 5.88972 23.3486 22.4229
2034 4 3.07789 20.8589 25.7256
2776 4 1.57156 25.758 21.6808
2489 4 0.420301 22.8805 21.6283
385 6 3.38666 18.3533 25.7365
2002 4 5.88693 19.604 29.4664
2457 4 7.69108 24.07 26.8949
2572 4 3.14184 24.6264 27.8306
1244 4 4.88953 19.8159 27.0921
2527 4 5.48552 25.7577 27.0773
2625 4 2.37302 22.3298 28.6099
411 6 0.340837 21.4171 28.074
1579 4 4.36854 23.5269 29.8123
826 10 5.9954 19.1403 28.0079
1489 4 0.318198 25.2797 28.9161
724 10 3.62638 23.1658 28.5937
1748 4 2.86781 17.6122 27.8805
472 15 7.19744 25.6242 27.5705
886 10 1.45487 17.8007 28.4161
1935 4 6.03828 17.6911 27.7565
2845 4 7.44549 19.6329 27.2864
1351 4 4.70853 22.6139 27.5081
1189 4 0.612491 18.9718 28.0698
381 6 0.710082 24.6853 26.9161
1823 4 7.06139 25.4693 29.3178
1680 4 1.53421 17.824 30.1046
1112 10 8.14319 24.516 30.177
1478 4 1.0143 22.4541 26.0654
581 15 4.77087 21.383 26.2095
256 6 0.182914 18.4285 32.0523
1633 4 7.22294 23.3757 30.5901
758 10 4.18572 23.1545 33.6633
2962 4 1.61911 21.9693 31.6364
2938 4 3.57549 20.3754 31.5354
1918 4 7.23988 18.564 32.7318
2665 4 1.72253 20.0075 33.2858
573 15 -0.0514543 22.4558 31.7339
282 6 7.44313 24.165 32.8863
16 6 5.53041 18.086 31.0048
1051 10 2.57744 20.9525 32.4967
1509 4 3.50943 24.0755 32.6856
2049 4 5.01282 17.544 33.0805
2353 4 3.3384 21.8205 33.6618
1368 4 5.63733 22.9243 33.4814
307 6 4.65275 25.3667 31.1131
1043 10 6.36363 18.0387 33.7702
340 6 2.46134 25.7117 34.0161
145 6 5.52517 21.6612 30.6249
2857 4 -0.125428 24.0638 31.0483
2981 4 0.434028 24.6195 34.4384
2178 4 2.2891 17.1903 32.4544
2148 4 7.47719 26.8615 1.94148
2079 4 0.226221 33.2067 0.264001
2979 4 4.58944 34.3047 3.45483
676 15 4.92086 33.0089 -0.107068
2623 4 1.96257 29.922 1.38262
2333 4 2.28464 32.2423 3.08702
631 15 3.18919 26.7935 2.31153
1609 4 4.76614 27.5691 2.49984
1877 4 4.6454 30.8514 2.81059
1455 4 2.47878 27.1543 0.653226
2698 4 -0.0292159 33.0113 3.43357
884 10 6.14912 30.3629 2.64611
2027 4 6.91098 31.7197 2.44588
567 15 1.98466 28.684 0.146419
681 15 3.09633 31.152 1.88162
600 15 6.06955 27.756 1.34054
1605 4 3.49801 32.1582 0.517074
2879 4 6.26629 29.5487 1.25233
141 6 1.15895 34.4739 1.9994
1767 4 5.51998 34.2291 1.12823
1513 4 6.69096 29.5949 3.8134
1170 4 2.19565 27.5821 3.5872
2748 4 5.52093 27.0857 -0.261204
885 10 1.63967 27.1849 5.11323
2326 4 1.52446 32.7848 5.50866
1539 4 3.06947 31.2818 7.72139
1025 10 7.0595 31.6741 8.01808
2909 4 2.74101 27.8172 5.99928
2072 4 7.5237 33.3641 5.23051
2133 4 4.7843 29.8098 6.45478
956 10 7.29052 34.3156 6.44563
1794 4 0.177123 27.8813 5.21897
85 6 7.31472 28.7634 6.75688
2472 4 7.227 33.2637 7.81562
1040 10 4.42629 31.2076 6.92766
1957 4 4.51671 32.2646 5.86765
2097 4 7.02929 27.0674 4.98575
907 10 1.05205 32.243 4.13908
221 6 2.52678 28.8977 8.08085
360 6 5.00788 28.3398 4.83831
2455 4 -0.368413 30.2956 7.0357
2777 4 7.63097 30.9029 6.8796
258 6 3.42157 34.172 5.49828
520 15 -0.291411 29.6532 5.35435
1844 4 0.691975 30.6155 4.25623
342 6 1.53848 32.9373 7.88857
2931 4 5.44492 31.5712 8.19398
2149 4 5.20924 26.5764 7.89549
417 6 5.89437 32.6292 4.26205
1783 4 -0.410083 26.6025 8.21372
2590 4 3.52114 32.5449 10.2915
963 10 4.14508 28.9004 10.962
2841 4 4.36424 28.3903 9.45355
755 10 5.62795 27.3967 9.0696
31 6 8.01468 26.1294 10.7884
958 10 2.61771 31.5035 10.9047
2100 4 0.878085 28.3646 9.5424
344 6 5.66465 31.9148 10.719
60 6 -0.0452439 33.8694 11.7917
2941 4 5.34274 29.6016 11.4525
1782 4 1.18563 31.6188 10.5408
1572 4 7.63284 31.3845 9.37338
2919 4 6.11836 34.0385 11.2484
854 10 0.037138 27.0803 9.54172
1899 4 2.91642 31.3715 12.4549
2964 4 3.0062 29.9707 10.5237
1930 4 3.60133 27.8214 11.7694
2088 4 0.983505 25.9568 10.2914
2647 4 6.77183 28.3063 8.72455
1870 4 7.21724 31.3659 12.3193
1506 4 5.92782 26.5236 10.3362
184 6 -0.293616 30.1317 10.6877
445 6 7.75387 29.4778 10.2381
128 6 1.60235 27.4517 12.6763
2907 4 7.87324 33.1116 14.1364
2836 4 2.97714 31.7521 14.8703
2686 4 1.47804 26.6558 16.2517
257 6 6.34082 29.198 13.4139
2243 4 3.46107 33.7412 13.3319
1052 10 7.32721 31.7378 13.8231
566 15 4.50845 31.0178 15.4226
1496 4 1.02779 32.7881 13.6494
2410 4 5.75618 31.825 14.3892
806 10 7.58223 26.1078 14.2368
546 15 4.48955 28.2218 16.6471
888 10 2.52502 32.5683 13.5878
2835 4 4.12366 26.4791 16.3376
120 6 4.91804 26.1862 12.9146
2038 4 4.55015 29.2881 15.1429
2754 4 8.00454 30.5635 14.5165
2808 4 6.45056 27.1027 14.5245
1206 4 4.11953 34.1524 16.7793
378 6 5.85729 34.3022 13.6267
84 6 7.89322 29.0932 16.2468
80 6 0.167549 32.0101 15.8155
2715 4 2.90037 26.2551 14.1367
1736 4 0.169133 29.0729 12.8657
2054 4 6.74867 34.4806 16.8674
1901 4 4.71287 31.4338 17.0754
1305 4 0.335149 34.2294 19.0841
2166 4 3.7603 33.0876 19.571
1821 4 2.00306 32.3791 17.6122
2130 4 5.88942 28.2606 17.5825
454 6 0.963208 29.3444 20.3502
1123 10 5.01046 32.9607 20.5473
1705 4 0.149551 28.433 18.0762
571 15 3.71969 32.7317 17.8134
2677 4 2.96146 28.8775 17.4725
2536 4 6.06134 31.9935 20.0004
2663 4 2.0991 26.6116 19.1543
2997 4 0.860459 31.6471 20.3333
299 6 6.35058 29.6588 19.2794
264 6 7.43676 33.4716 18.9245
544 15 0.713892 32.5606 18.8331
699 15 1.68598 27.6039 17.6813
2784 4 3.04472 29.1729 20.7546
2509 4 5.55532 34.4677 20.5065
185 6 6.86578 26.1706 17.4315
1719 4 8.26807 30.7662 17.685
1942 4 5.50468 28.8987 21.2211
2371 4 8.25464 28.309 19.6893
2998 4 2.56675 29.2169 24.9787
1084 10 4.07712 28.8755 21.8046
1412 4 1.15687 33.7524 21.7636
2803 4 4.98222 33.7364 24.8586
803 10 4.03526 29.718 24.5777
1271 4 4.11578 30.0173 22.9736
1062 10 0.595003 32.1614 21.8899
76 6 7.27383 27.4517 21.7494
2028 4 8.08733 33.3386 22.0902
519 15 2.14055 27.5253 25.5918
2131 4 4.49053 32.5592 21.926
2143 4 1.59641 31.5039 22.8081
104 6 0.969747 31.4468 25.1608
2671 4 4.13533 31.2005 25.1578
351 6 3.04568 33.536 23.3653
2977 4 3.78132 27.5624 22.6844
1703 4 1.85319 26.3524 24.4413
1378 4 1.21277 33.7207 25.0937
2828 4 5.0748 28.7262 25.0136
59 6 6.80719 31.3763 22.1566
1242 4 7.57426 30.9183 24.0453
553 15 2.78897 26.157 22.8826
2084 4 0.671301 32.5421 28.0848
1778 4 7.13304 33.5035 28.2129
1453 4 8.10633 26.9868 27.0735
2694 4 4.18175 26.5715 29.1998
309 6 6.64579 29.5519 26.2983
2847 4 3.77397 32.9419 27.4731
853 10 7.46003 32.196 27.5917
763 10 6.198 30.2157 29.3551
486 15 4.7742 32.5546 26.1227
1606 4 0.60831 27.8664 26.4036
330 6 3.56738 28.8023 29.324
1218 4 0.492347 30.0815 27.7741
1346 4 6.2555 31.6702 26.6482
468 15 3.74869 32.2902 29.0847
2290 4 3.17848 26.9609 26.9292
1697 4 1.29865 27.9371 28.8747
737 10 0.285665 28.4968 27.8238
1676 4 7.50342 31.0391 28.7916
1246 4 2.31446 30.9998 29.1714
996 10 0.797293 31.2606 28.8517
2127 4 5.47735 29.4368 28.2561
2060 4 5.19716 31.3931 29.8139
1027 10 4.05489 26.007 27.8142
1245 4 -0.223731 31.0619 29.971
602 15 2.77006 34.5021 33.1546
230 6 6.03067 30.747 32.2576
131 6 1.01908 26.6339 30.6496
1839 4 4.38757 33.7292 33.4298
2055 4 3.18112 29.2719 34.0486
2678 4 5.12022 28.4758 32.778
1126 10 6.20553 27.4327 33.395
2087 4 2.85664 27.2678 32.4138
2011 4 3.35902 29.6194 31.4527
2721 4 0.586476 31.193 33.7261
2799 4 1.57074 33.1762 32.9955
992 10 3.53259 28.6307 32.5729
1726 4 8.07628 33.7559 33.9884
2787 4 7.54317 28.0827 33.5359
1081 10 0.230576 32.788 33.9059
2191 4 6.76605 29.5696 30.6034
58 6 1.75725 31.2393 31.5273
775 10 7.87608 32.2704 34.0899
2881 4 6.3021 31.9938 34.4348
2858 4 6.0556 26.1655 32.6628
2339 4 8.24655 31.5018 32.8752
2209 4 0.296567 28.4557 34.6339
2223 4 3.3624 33.3951 30.3675
386 6 9.33763 6.61731 2.1462
960 10 14.5531 3.44526 0.187792
2571 4 10.7823 0.670802 3.28111
1470 4 13.7453 0.157771 0.575927
2198 4 11.4151 6.88154 3.17409
2321 4 13.4097 6.14278 1.91258
278 6 14.6656 3.54444 3.48778
1722 4 16.4351 5.72881 2.32281
1011 10 9.9131 2.51965 0.360128
570 15 12.7037 7.05187 0.530863
2424 4 8.64802 4.78072 3.5336
616 15 10.0989 2.3071 3.27571
2376 4 10.541 3.02509 1.73523
1612 4 13.9258 3.1969 1.48861
1482 4 9.76721 1.02259 0.266635
845 10 12.8365 6.5317 3.36718
1575 4 13.6887 7.91935 3.62042
2778 4 11.061 6.63219 0.0331959
2668 4 8.53521 3.17829 0.0803634
1334 4 16.3545 1.87307 3.44185
2758 4 15.6093 4.64814 0.0967607
879 10 16.9433 5.11532 1.01505
2401 4 16.7045 8.29946 1.66316
471 15 16.9521 7.87437 -0.062858
1009 10 16.5803 1.30122 4.79726
2944 4 14.1715 4.72636 7.72445
1377 4 11.6517 0.92917 6.00145
930 10 12.1965 2.23731 5.35598
2277 4 13.4093 2.14902 4.51856
1884 4 15.9877 7.04535 4.43461
1766 4 8.61615 7.18923 5.92454
1715 4 15.7046 0.193192 5.32788
2237 4 10.9774 2.98306 4.64354
383 6 12.0951 5.77537 6.42986
1023 10 16.4949 2.40123 7.55463
1165 4 12.347 3.14369 6.673
635 15 13.4761 3.11509 8.07788
1195 4 16.4532 2.44828 5.90813
2426 4 14.9659 2.19634 8.06643
1413 4 14.2454 7.86594 6.11509
776 10 14.8209 8.08256 4.75757
2303 4 9.49833 4.9886 7.51456
1321 4 8.78168 2.54126 7.9716
1541 4 13.1284 5.49167 4.4411
1620 4 11.0865 7.90939 5.99916
2732 4 8.47156 0.186647 6.72555
1373 4 16.9823 0.958317 7.86587
972 10 15.9046 7.93311 9.44668
1173 4 12.8898 6.6823 8.75458
246 6 9.01832 5.13571 11.8788
729 10 9.51589 7.92244 9.72898
951 10 15.2623 5.89957 11.3369
1070 10 9.23034 3.79607 8.63854
2481 4 14.4367 5.85191 12.5435
408 6 9.47158 0.482075 8.75217
2378 4 14.4421 5.1991 10.2023
1481 4 15.2214 7.54348 10.8244
2280 4 10.6174 1.61092 10.5578
1402 4 9.93353 6.94462 10.7795
980 10 11.4604 2.84448 10.3406
207 6 15.277 1.31685 10.479
1810 4 12.8439 2.52177 9.6257
1992 4 11.4644 3.80992 11.4559
2217 4 16.6826 5.4081 11.3893
1006 10 14.1549 5.92562 8.74161
1370 4 14.7544 2.69957 12.2666
1515 4 14.328 0.209274 12.219
61 6 11.8742 7.78765 11.0645
1160 4 10.7609 3.63171 9.0739
1828 4 8.42564 4.23066 9.85677
70 6 9.61686 0.794066 12.4518
1994 4 15.5058 6.70451 8.39406
1227 4 9.60794 5.80623 14.1943
1804 4 13.3672 1.8084 14.226
1447 4 10.69 5.43989 16.5725
1153 10 15.0417 6.56277 16.1887
270 6 15.7484 2.90237 15.6076
2225 4 8.43469 3.92869 16.1231
807 10 10.6748 5.18369 15.0744
817 10 9.25826 2.68636 15.5702
2679 4 12.0739 5.29478 14.4695
1536 4 15.8354 1.16456 14.0679
419 6 13.3518 7.15297 14.2131
2418 4 15.2557 5.14683 15.6631
2297 4 10.4722 3.45023 14.8671
331 6 16.7419 6.16755 13.8707
2230 4 8.54071 1.91617 14.452
1337 4 15.6222 7.64813 15.2241
711 10 14.5891 1.55387 13.2518
292 6 12.2196 1.17653 16.1067
1771 4 13.5742 6.9316 16.4724
1560 4 10.8322 -0.384461 15.049
1233 4 9.67761 1.92017 16.7974
239 6 13.0327 4.08446 12.9158
394 6 8.68661 7.91137 14.1927
1379 4 12.2607 6.17275 20.3901
2759 4 16.336 1.00052 20.1597
560 15 14.99 8.04674 20.5181
1971 4 15.008 6.22519 20.5785
2903 4 14.123 4.50957 18.5174
700 15 15.5839 5.44059 18.9582
2216 4 12.1641 2.84788 18.568
1972 4 9.77302 6.03035 20.211
397 6 12.3167 6.13054 18.1195
944 10 14.8655 1.06494 20.4892
1683 4 15.8468 6.67538 17.7096
1735 4 14.1834 2.39765 19.9086
852 10 13.6427 2.98636 18.4506
1973 4 14.2636 -0.165243 19.5472
149 6 9.08788 6.65286 17.8384
64 6 10.1389 1.70863 18.9339
747 10 10.9713 6.22642 21.0922
2620 4 11.7344 0.284029 19.9413
2531 4 14.2971 2.21131 17.3673
2075 4 17.0683 4.45199 18.8222
1904 4 8.85309 -0.257894 20.1344
1649 4 10.8842 4.98199 22.2448
554 15 11.6473 7.9279 23.798
955 10 10.2582 1.36996 22.9063
2375 4 9.382 1.91833 24.1741
782 10 12.1423 4.8788 23.304
477 15 8.71021 1.00806 25.5929
1537 4 14.3602 0.930448 21.8885
107 6 14.6604 2.66055 24.2221
303 6 8.85217 4.21995 24.0905
2969 4 15.7981 -0.131802 24.8573
1465 4 11.687 1.17859 23.4837
2423 4 10.8799 7.51238 22.1189
2996 4 9.61858 -0.0207274 22.604
1335 4 12.733 6.26852 23.6387
53 6 15.2449 5.4365 23.35
2039 4 13.2716 4.03943 22.8295
2244 4 11.3889 4.25394 24.5996
2173 4 16.6132 6.99762 24.2556
1635 4 8.78094 6.48246 24.8508
1517 4 14.9616 4.54461 25.7146
2937 4 11.1621 7.43392 25.3965
2690 4 16.8534 3.52331 24.0458
1811 4 10.1911 2.29224 21.6886
1737 4 14.3191 8.2456 22.1423
730 10 8.43083 -0.401616 21.5508
418 6 12.6244 2.33555 21.5202
1201 4 15.4248 5.00028 28.0733
1247 4 9.71054 0.377027 26.8845
153 6 9.30597 6.07388 28.8709
2792 4 12.5853 2.42328 26.2646
1031 10 14.3997 5.41308 26.8353
611 15 10.5718 1.60104 28.0749
1014 10 13.374 1.36156 27.1605
2305 4 10.3679 5.46149 26.5824
2899 4 14.4885 1.9459 27.971
2090 4 11.1726 7.35055 29.773
2614 4 10.2489 3.08331 27.2092
2574 4 16.7278 6.50496 29.5567
2235 4 12.2087 0.63814 27.9968
1891 4 9.67174 0.634762 29.3881
384 6 13.0256 7.61192 28.9552
2565 4 12.9424 4.99762 27.2512
925 10 15.5238 5.44429 29.6755
1459 4 14.5234 6.91839 26.7825
1652 4 11.4625 2.56745 29.6131
1398 4 9.14871 7.61422 27.1361
639 15 11.5892 4.06361 26.4031
109 6 16.0586 2.29727 29.3221
2541 4 14.2252 6.16358 29.9334
1054 10 9.78417 6.81659 26.0165
2406 4 13.7302 0.215342 26.1362
2144 4 13.5724 3.93393 34.0778
686 15 12.2938 2.97713 33.3274
1679 4 12.8873 1.37668 32.9396
1634 4 11.7374 3.81458 31.8711
1063 10 10.7363 3.31239 30.7574
2296 4 13.6316 6.86936 34.1096
43 6 16.8667 4.92887 32.4958
1654 4 17.0917 1.20329 32.0113
113 6 12.8643 0.442954 30.6983
2798 4 9.57032 2.34474 31.3632
1094 10 9.52722 0.743109 30.9565
3008 4 15.6558 6.78205 32.6374
578 15 14.2315 0.864853 34.0562
1954 4 15.0071 0.620739 30.7468
1122 10 10.426 8.03169 30.8596
2950 4 10.7154 7.26012 32.1953
2563 4 10.6532 0.0277574 31.6172
484 15 10.3879 7.75092 33.8829
1288 4 15.8488 4.25524 30.5264
1039 10 14.6349 7.74808 33.2303
926 10 16.0444 0.0884097 31.7396
2332 4 8.62059 8.00228 33.9661
2708 4 15.3457 -0.150807 33.1296
2859 4 8.8194 7.7343 30.6209
1685 4 10.8241 3.11898 34.3183
2430 4 15.3258 2.20237 34.617
2292 4 9.97421 4.46556 30.3237
2488 4 15.8405 15.052 0.273008
2849 4 13.5336 14.3923 0.691415
2618 4 13.8886 12.0412 2.82489
55 6 14.8103 10.1011 1.68815
1497 4 12.6294 8.82391 0.981319
1760 4 9.00927 13.2596 2.04334
1021 10 12.2036 10.1299 0.0482194
708 10 14.6284 15.2489 1.24377
645 15 10.0491 13.7967 3.38205
1311 4 11.7117 13.2921 2.86155
213 6 11.45 9.22027 2.96481
2283 4 14.9889 15.0993 2.73272
2180 4 14.257 16.8447 1.02809
1573 4 9.18755 16.9623 0.667275