LAMMPS data file via write_data, version 2 Apr 2025, timestep = 135000, units = metal

3000 atoms
17 atom types

0.3382150247919604 39.29748301116476 xlo xhi
0.3382150247919604 39.29748301116476 ylo yhi
0.3382150247919604 39.29748301116476 zlo zhi

Masses

1 6.939999998214724
2 10.80999999721919
3 14.00699999639678
4 15.99899999588435
5 18.99840315811277
6 22.98976927408601
7 24.30499999374767
8 26.98153849305915
9 28.08499999277529
10 30.97376199003218
11 32.05999999175275
12 35.44999999088069
13 39.09829998994218
14 40.07799998969016
15 72.62999998131635
16 79.90399997944515
17 126.9044699673545

Atoms # atomic

1758 11 8.586867473981302 6.787901640640244 4.544334462293464 0 2 1
637 1 1.0808382069896627 8.0065633618282 1.9083216207716867 3 0 0
2539 11 1.3129103748680586 2.1688080753971173 0.9697731734637453 -1 1 0
28 1 6.161911574950871 2.5319140786635645 1.4133395969687697 -2 2 -1
1444 15 4.241018050952504 8.828679144367406 3.298322236426803 1 -1 0
2498 11 1.854343744759543 5.7527623565956905 1.1170666223955266 0 1 0
1471 15 2.792573487618295 3.7895774426643425 0.7581796007464219 1 1 1
2338 11 9.269063401492888 9.674042565524442 2.2104918292942446 -1 0 -1
795 1 7.490364920159827 8.332587440845986 3.141527787012897 1 1 2
1645 11 7.812198933225144 1.1604569774346674 2.6226484309970526 0 1 0
1122 15 8.090659619851028 2.3377075268678023 4.384689389868442 0 1 -1
24 1 3.3887020391120757 1.2434545190063637 1.8964684003855645 1 1 -2
2225 11 2.1933985566201906 4.3350596589143615 4.639163060795524 2 0 1
1729 11 4.320804918875892 3.545353351368523 2.2691736826937507 -1 -1 1
2616 11 6.3871985747996725 3.88726726234922 4.638344567765984 2 0 -1
2558 11 2.494291817883066 8.00748038855381 4.273336188556216 2 0 0
351 1 3.424690238804928 5.966104408282829 3.1388611251234844 -1 2 -1
2520 11 10.06331645466106 3.3776556643446365 4.407910052186363 0 2 1
2088 11 5.22362609222649 7.3146608873145595 1.9561471459718 0 -1 -1
2570 11 3.764185390948785 0.37376129551259113 4.0383563615751195 1 1 1
936 1 9.80857576337129 5.054559068891241 2.5360592166245035 2 0 -1
327 1 4.24913573445405 2.7294945004352944 4.7925290733582475 -1 -2 0
2788 11 4.931011343773673 0.4417967554829102 0.3994253071606103 1 -1 0
17 1 2.582279763381322 6.577298872601493 6.283581140302522 0 -1 -1
71 1 1.7974982863774147 1.4427707741740285 6.182767179944185 -1 1 -2
1662 11 1.4968220815182558 8.627989189241536 9.438383348241025 0 0 0
534 1 2.176856845540323 9.97713805409476 7.6503223302010515 0 -1 1
1439 15 2.8730440195061813 7.065496176671922 9.760400914243553 1 -3 1
2416 11 5.227852940314946 6.849635657384961 6.062842983310465 1 1 0
1031 15 7.165101755901086 8.70961504959981 9.50469580019214 0 0 -1
2377 11 2.78416184954599 5.230420405630876 8.398850438719885 0 1 -1
1922 11 3.860049353273878 1.895701062056171 7.4400648845370805 -1 0 1
2727 11 7.740147446774749 5.076122958685092 7.654445878814234 1 0 -1
756 1 9.797122850378834 5.25112304642844 9.462498748936364 -2 -1 2
1352 15 3.436373447623177 3.2372643026209453 9.621563502253514 1 0 0
114 1 6.336977314202584 2.630879052026503 8.015982222844935 1 -1 -1
313 1 5.489094969012002 5.696109479426269 8.178660237698956 0 1 0
2809 11 7.607297008305072 9.308570378409215 7.300678523233915 0 0 1
1279 15 5.638455129484041 9.087227747730203 6.329270132077804 0 0 1
2766 11 5.235232994891429 7.385152663347215 9.614177220537423 0 0 -2
2058 11 7.350455859630345 1.0811879547242709 6.223292577970683 0 2 1
1313 15 7.084045030401394 5.620099641771291 5.683389758898655 0 1 0
111 1 9.030164895521617 7.409955232152315 7.461787947586361 1 1 0
2006 11 6.907039163685572 0.8284793072173192 9.419563675327801 1 0 0
213 1 0.5506387636561101 4.373555083112529 8.920610461152833 2 1 -1
1491 15 7.850501216702728 1.523290537749844 11.35717753104038 1 -1 0
2718 11 4.177499592432242 3.9664253037479624 13.897954917860114 0 1 0
2752 11 3.330090672457497 0.7689007515920172 10.654211450969767 1 1 1
2553 11 0.8622975514313751 5.35263855422808 14.282206005835786 2 0 0
229 1 6.697985279357675 3.6401104875245918 12.932167176544658 0 0 1
2219 11 8.749669274703274 3.5515036663232364 11.124553082071875 1 0 2
1382 15 2.391310237440384 4.7525026624188875 12.762474441415678 1 0 1
2055 11 1.4699842017822085 3.569971686687587 11.107743068168062 1 0 1
2497 11 5.399911859330853 3.8004392323446172 10.486839143558662 1 0 -2
302 1 4.8886904781589955 8.329321785237923 12.038427570841371 1 1 1
381 1 0.6780656280907877 7.4783072232521794 13.333082494483566 1 -1 1
2487 11 8.439893559446825 3.8554323229918186 14.809823763195194 0 1 0
2078 11 6.569433568929502 1.1724567346324497 13.040707880116555 0 0 -1
1554 11 8.752124013595088 7.406872488880877 10.150609280101733 1 1 -1
488 1 1.0053932319387757 0.6918616160387588 11.069585534947244 1 1 2
66 1 7.139799340123941 5.654578727487459 10.608148862963528 0 0 1
1525 11 6.433769024054141 6.670374309762534 12.979583931559658 0 1 0
85 1 4.268024653204204 2.015524183624711 12.68608955150639 1 -1 -1
2802 11 2.856533631451095 6.877336146372379 12.040622865218479 1 0 1
2032 11 7.622678582056075 9.847394133356882 14.516015950402474 0 0 0
2980 11 0.3439910290632308 9.853029698724987 14.621859402516474 1 -1 1
1393 15 7.8777869844593225 7.612562657360007 14.256003086340774 1 1 0
2029 11 0.4650699476098622 1.5912667279142352 13.429183516681423 0 1 -1
2292 11 9.988710277312729 6.915156938346631 13.918086312847686 -1 0 0
406 1 4.745996717328262 6.428891301687179 14.835992212680516 2 -1 0
2811 11 7.227651193865253 6.959421708139925 16.384635849728767 1 1 0
675 1 2.8521473354892066 4.009066777132892 18.873216978489747 1 -1 1
893 1 1.5777240106722024 5.401109534175339 16.8019424414953 3 1 2
1927 11 1.7443754898418264 7.431471497026759 18.204047546907763 -1 0 -1
836 1 8.928438088734259 3.1332710900011604 19.331574423633256 1 1 1
2166 11 8.404029758451506 10.069945060920034 18.613021087520917 0 0 0
1269 15 3.7133784560840573 6.764006942476939 18.56651364723032 -1 1 0
1897 11 6.760012547502367 2.086510984227077 17.461985632834388 0 1 -1
2309 11 3.751715140708653 1.892044542935663 19.26109520295806 0 0 -1
1981 11 3.838673722040283 9.162277330644988 15.696188589045054 0 1 0
52 1 6.410416433710454 4.557053011165511 17.020052503859166 0 1 0
1948 11 3.4146310904454533 0.9832604361945769 17.473626935230776 0 0 0
1814 11 4.021967619201345 5.202399158991012 17.164612664913285 2 1 0
401 1 0.9879551134421309 0.910278248852316 18.23052114587174 1 1 -1
1362 15 8.694008384783993 2.2678575529094247 16.330486701477884 1 1 0
2954 11 5.16318096750924 8.273831861184432 18.82934830331302 2 -1 1
143 1 9.861031514589627 5.584361307861978 16.169385242872664 -1 -2 0
110 1 6.090094196807319 9.283530532861827 16.484833845813625 1 2 0
775 1 4.858843427879422 2.191573893579269 15.551733436748819 1 0 1
825 1 7.473604040790338 7.448914124066972 18.937132772765374 -2 -1 0
2713 11 0.6519538602040932 3.3781542954199666 17.695023485193737 0 -2 0
2228 11 6.9178443709933095 5.085031302918131 19.487177047012768 0 0 1
339 1 0.4226381281833324 8.316165571772435 16.58437021047496 -1 0 0
1299 15 4.922967107380869 7.957785748570841 24.081081454782478 0 1 1
86 1 8.558229225984523 7.359585800604435 23.786796980528674 0 0 1
1748 11 3.4895094153297634 5.69671838036673 20.644895225426374 0 2 0
2080 11 5.717152291390215 3.3231951071796355 22.30156348222083 0 0 -1
43 1 7.979789769402437 2.826932323598767 22.59808605716045 1 0 -1
1420 15 5.609806489107701 5.215629564728207 21.326290436856016 0 1 0
2001 11 9.347300885981195 7.775448935174867 20.681171225590113 -1 1 -1
2879 11 8.981756588393573 4.915108148446569 23.470183535620457 0 1 0
2242 11 9.309786963208738 1.589298387434276 20.929531273185415 0 1 1
1159 15 9.799617694751715 9.970465102481228 20.46937581882174 0 0 0
1753 11 6.426680994017811 7.155721493749392 22.252322592672915 1 1 -1
2249 11 1.1636328495388377 2.9781870078921235 21.238879414783984 1 1 0
1802 11 0.8930410230309178 9.630462384360015 21.259292733795874 0 0 2
654 1 8.626295335708535 5.64589551126392 21.212039022236695 2 1 -2
63 1 0.9588651229636199 1.0168181662997011 22.99025808889688 1 2 0
816 1 4.957682590909537 8.727579928102452 21.210729698794335 3 -1 0
2062 11 7.869553493917822 0.874459328387932 24.15981003726213 0 0 -1
2626 11 3.3720587480825652 9.047166672308725 22.851095586386126 1 0 -1
612 1 2.2929673109567714 6.694883321416232 22.750671877378412 2 -2 1
236 1 5.984485108303866 2.160192081422113 19.880194227744862 0 0 -1
393 1 4.78401240534567 3.6200681060063875 24.40496274039704 -1 0 -2
2587 11 3.6096371691351496 5.8077239416905115 24.66459525857906 1 0 0
346 1 5.4795076783217604 0.5436106536601599 23.045029697477776 1 0 -1
712 1 8.461611264204514 3.0809677134749562 27.965633895943157 -1 1 1
1417 15 6.903327591197148 1.122410343603838 26.318850717112507 0 0 1
2950 11 1.349097995275877 6.300760828580403 27.362098731954262 2 0 -1
1737 11 9.574505852929136 9.585933741743936 27.441471531530944 1 0 0
1047 15 8.431767873390623 4.85328329318335 25.598692424051993 0 -1 0
455 1 6.568996917897798 5.408824009093691 27.752747122138196 0 0 1
778 1 4.317641451254763 2.9888842227025885 27.626351911476753 -1 -2 1
2074 11 4.293072523742682 5.3318690345992 28.312232813104107 1 -1 0
1694 11 5.567746046333042 1.7136423931750941 29.1611827371202 1 1 0
2524 11 3.8140178019835496 8.733559437404994 26.652914514259518 1 0 0
2480 11 6.624208902127108 3.7712325448885164 26.167274125400866 1 0 0
2386 11 4.121300260848458 1.2176490367405406 25.314348129497812 2 1 -2
1213 15 2.0409072400811175 1.0733490370932182 26.12946788729475 0 -1 0
2295 11 2.0579934335403194 2.015526890160947 28.091684438768464 0 1 0
1192 15 3.3473413240608823 6.571952982936448 26.75392990374915 1 1 1
1082 15 8.859466952859407 7.592350381583195 28.26246174359966 0 0 1
1684 11 7.794579501950946 6.930588258953652 26.142508509861138 0 2 0
1849 11 6.690615764704874 8.448354010075748 29.085807388561232 0 1 0
314 1 2.104299667143508 4.518614751654025 28.48470271542854 0 1 0
49 1 0.5198683983598154 5.212507391570496 25.65304897719523 1 2 1
551 1 2.4607136485443877 9.557407861690356 24.824699843696983 2 0 -1
2707 11 9.174679418124498 0.663998789178208 27.267540594216726 1 0 -1
2763 11 0.7683636917242547 2.5209529822770995 24.77124492250652 0 1 -2
2908 11 2.7906461265409415 8.2556413534255 30.2238946168398 1 -1 0
257 1 4.89951001556531 2.743299352924683 33.70193185115053 -1 1 -1
1043 15 7.560399917139494 6.106968564561621 34.06275384736868 1 2 -1
2438 11 6.926791831227294 2.2017759688746072 32.24577290023865 0 0 -1
1884 11 2.7692842601622716 1.5092853730683247 32.2185467987986 0 0 -1
726 1 4.942882564102448 6.989769336092868 30.084025421205272 0 1 1
2371 11 9.353424048121203 5.165571193295926 33.11188170289913 -1 1 0
9 1 9.129230173360966 0.6690792499020101 32.07043037066523 1 1 -2
1462 15 2.4375922053909087 3.5807992209933572 31.920796346058946 1 1 0
974 1 9.884615502446861 4.504254272606637 30.78789487552221 0 1 1
292 1 0.941131593863078 6.5460537219506385 29.839076579339007 2 2 0
1547 11 4.477709575127008 4.501561204636408 31.31828412364711 1 1 -1
1521 11 0.7619512957428511 4.273247995546614 30.729484655613238 -1 1 0
127 1 5.455067283236168 9.265055495055321 33.12106030901773 0 1 0
2246 11 6.632126877425111 7.2251004544990245 32.292035098926156 0 0 0
1005 15 6.215791835891815 3.337457692387953 30.460953654076285 2 1 -2
491 1 4.567339657883583 6.031972385312176 33.38296913719651 2 1 1
1209 15 1.9789254629439021 8.702138384157523 32.099936014577075 0 -1 0
2414 11 3.349178127539294 8.13679483818891 33.8910044350449 -1 0 1
2066 11 2.5827467939093625 4.53856746821251 33.97418480727858 2 2 0
988 1 9.380942115743348 7.995543270579313 31.89628116010146 0 3 0
981 1 3.283931993440088 0.8712024864671145 29.77332421118087 1 0 0
2716 11 7.771933984577051 4.688806426032452 29.66500370975519 0 1 1
2145 11 8.11160433300019 0.5418605567933603 34.31297607879471 -1 0 0
732 1 1.6687825328404458 6.818146762262749 34.354041487539305 1 0 1
639 1 8.038292141037427 3.2521486237651365 34.053603710869425 -1 1 0
1262 15 8.736499461795296 2.993226071470513 38.16641504981224 0 0 -1
1052 15 9.419258185489063 6.407197907393018 37.276342090520416 0 0 -1
848 1 5.433893310029461 5.286091082188834 37.30606423843224 -1 -2 -1
2368 11 3.6134134318683127 3.758763968427506 37.688297289773125 1 -1 0
2648 11 4.802342843018795 1.2071871597325496 35.53916373711473 -1 0 0
296 1 9.389905398611692 9.79012695635155 34.99084322976049 -2 0 0
2701 11 1.7427022175154008 8.768117043934375 38.605201412352024 0 0 -1
270 1 3.203077703247846 8.980454121711832 36.11673112440282 1 1 -1
1148 15 4.538135649948478 8.831194613722834 39.1526447197618 0 -1 0
62 1 2.267254354445778 6.512187856350416 37.82522407198935 2 2 -1
2485 11 0.8371832707897978 2.064325425104162 36.248372089057504 -1 1 -2
2913 11 8.22720461566549 6.924481527633955 39.11021610379406 0 0 0
2571 11 8.481752184342662 7.593725800646301 35.55346851921126 0 1 0
2130 11 6.130984726896618 4.749327107434813 34.9155724291359 -1 0 1
136 1 3.0471004697446014 1.5490626975900168 37.397229409772 2 0 0
1924 11 4.526060121006312 7.4163599125811155 37.33100336715473 0 1 -1
651 1 5.702474593237957 2.0493963170430813 37.49499601640451 -1 1 1
1483 15 0.7755668880948307 3.9315372062454954 35.2138483266151 1 1 0
1509 11 8.465858185976375 0.8601205621355527 37.55752929732971 1 1 0
1926 11 9.699542022790158 4.2598579202145785 36.48074727843077 0 3 0
885 1 6.5741391587963545 8.628418386963505 36.668918067908585 0 1 -1
1513 11 6.765607927408119 3.7908601703047964 38.69665784851205 1 0 -1
1478 15 8.406583895697203 9.217950276509296 39.18476865665073 0 1 0
2026 11 0.5340274642227921 5.911385560725556 36.359871013421525 1 1 0
585 1 2.235810794767825 0.41500798238841696 34.697878769952204 0 0 0
2522 11 1.7994307266101741 13.649963120939095 0.9636052925602915 0 0 2
849 1 8.154503722323168 11.595810859322988 3.296179038285117 0 1 -1
770 1 1.8182393156460346 10.326339491349303 3.855931915338116 0 1 1
1715 11 3.655601257941644 10.405227418897356 1.8472479142399238 -1 0 1
1257 15 8.090321066567316 17.055193718463514 2.402722737078703 -1 -1 1
1705 11 9.120927010700385 19.133384311444953 1.917557910184802 0 0 -2
2440 11 3.362679601015455 18.827514342197347 1.4010017203137486 -2 0 1
1335 15 1.548334505186026 14.569803531820902 3.9445115789606824 1 0 0
2434 11 1.6551780926304662 19.174919576567703 4.366379021973069 1 1 1
2385 11 7.724398293003444 13.12095799783614 1.5432918104803832 0 0 1
344 1 2.799791568010718 16.52672020111255 1.2665121352893975 1 -2 0
2743 11 6.213439079527589 13.370673907677872 4.432167089195873 0 1 0
1272 15 4.508113483426606 13.53195858655533 2.7035217035498884 1 1 1
1717 11 2.673572196852832 12.568685732864333 4.454548990969577 2 2 1
1848 11 3.588054976224733 15.643228939415474 3.312817517299076 1 1 -1
37 1 3.84271304324692 18.184104149549874 4.2429492052982765 0 0 -1
1252 15 9.701876559587534 13.907594578480984 1.1996283671196109 0 0 0
1764 11 0.7397718969297312 16.93492156619625 0.4165722347885017 0 1 2
2709 11 7.842245105049056 17.349374463962672 4.892774934120353 1 -1 0
813 1 1.6727666227029623 11.15407835923018 0.537769479045783 -1 -3 0
2673 11 9.73965908361209 11.436828236895751 5.099162504174645 0 0 0
1624 11 9.918709896843914 15.632306910487856 2.609951565462542 1 0 -1
2942 11 5.862897021710434 10.10898600962532 4.257246666945351 1 0 1
2973 11 4.490038503206864 14.58101664762979 7.383403150229982 0 -1 0
2465 11 2.9721465912721614 16.76536433828792 9.619296190884592 1 0 -1
2523 11 1.990272979935624 12.594410706087979 9.718783393191039 0 0 0
1128 15 7.103946926418976 15.09906571137924 6.8477952495963486 0 0 0
1996 11 4.459277624915534 10.69654920020802 7.49025804806806 1 0 1
1023 15 3.2069446971518123 16.402673418943643 7.364023451155468 2 0 0
1357 15 9.401537605054406 12.663466161163742 6.910709538120104 0 0 0
1149 15 7.107685269000149 19.424719562022478 5.6993058834398855 -1 0 0
2782 11 9.50585740345935 14.772912008171586 6.248745791099997 1 1 1
1700 11 1.13089572723002 12.068682912955833 8.03045413076563 1 0 2
1657 11 7.231567170502909 16.769499423661735 8.46268447237248 1 0 0
1710 11 7.228945570863792 12.78224366368838 7.52751090088283 0 -1 0
1158 15 4.576967677079836 12.736206781365912 6.040753323796286 0 0 0
2072 11 1.3215975200417007 16.002469053696498 6.376916209100007 2 0 1
1261 15 9.295958388888302 17.245820840786465 8.952006763247892 0 0 0
2783 11 4.331588377461949 18.11873439969764 6.480034340347477 1 1 1
403 1 7.753332054722157 12.433510048931764 9.91631273165697 1 -1 1
2568 11 10.011152595123885 15.413387460829433 10.059005979998362 1 0 0
1036 15 2.453644086233522 10.758629797776763 14.551211141920586 -1 1 -1
619 1 5.4578771717504795 10.825098006885195 13.696793238546283 0 -1 -2
459 1 3.538711477292724 13.097342209039645 12.37681883092074 0 0 -1
2038 11 5.529706664926317 13.178261301505025 14.10681381315173 1 0 1
2151 11 3.3335732187671714 10.682358450550469 12.425764832941818 0 0 0
2175 11 6.670539081249223 10.274175259248286 10.841920016576085 -1 1 2
1468 15 6.4671496065864895 13.969442063893728 12.346555818735306 0 1 -1
1600 11 9.251977832370127 18.65390217917953 10.766135487645492 0 0 1
1816 11 2.604682849892077 15.352155815174319 12.573565506013558 1 -1 0
510 1 9.626090482725958 18.48168578371943 14.633792078355384 -1 1 0
2775 11 3.1746127956121053 19.030724652543057 12.313487914942439 2 1 1
717 1 1.0198344700564 14.636190149052007 10.928257533629804 2 1 1
1012 15 1.2921736282692937 14.688933430771394 14.12765855717594 1 -1 1
1921 11 8.506257020509704 13.111672457689973 12.004336216108277 1 1 0
1410 15 2.122951059284028 18.655368742780333 10.367256692921014 1 0 0
1757 11 5.1216218565990275 13.937071388071017 10.585214200854363 -2 0 1
2424 11 6.638900643737577 16.28617760850181 12.503599638397228 0 0 1
785 1 2.558846658503889 17.34869761995639 13.88362952829512 0 0 1
520 1 9.10824414872098 15.567467589056445 12.249011698186445 0 -2 2
620 1 8.584407259961644 10.485886609133534 12.622246256686822 2 1 2
262 1 1.4315628203825386 10.2403811860155 10.909551576137943 0 -1 0
1389 15 6.345654871931269 16.765780672519806 14.708459974995641 1 0 0
2046 11 5.704691534662786 19.58561136628141 10.124488786753128 0 1 2
588 1 4.432730953088032 11.65096741651078 10.130483793136234 1 0 1
251 1 5.50786107591705 17.02956919783947 10.505771962151703 1 0 1
690 1 8.76016949343936 19.705525872669178 17.70972849848309 1 0 0
2390 11 8.033959652535096 13.67563276229867 19.33311738173687 0 0 1
1846 11 4.598562360271009 18.851967284754988 18.425801929984573 -1 0 1
1545 11 5.6722329112604 11.872400694714198 17.193845981579848 0 1 0
421 1 2.795935653923986 16.538594933516794 17.031303913231493 2 -2 0
616 1 4.4973274774306855 14.129366230879175 16.07912377141283 -1 -1 1
1979 11 2.531313483429587 18.689360996410134 18.06481629841921 1 0 1
2931 11 4.114320809480635 15.013306495677142 18.55047504185005 1 1 1
2260 11 9.849842927794558 12.881060362095207 15.443340335269744 2 0 1
1243 15 6.957942569551813 11.838169597474034 18.885846315432403 0 1 1
930 1 3.916211222835726 10.337712475770989 17.741362106206324 0 0 2
1063 15 2.2969762769882354 13.98528815848845 19.151216707187157 1 1 2
2838 11 8.585856647615165 17.429861924836622 19.15928216527298 0 -1 0
2846 11 0.7982390559974658 16.38317945162146 15.474895095586627 1 1 -1
2489 11 7.259318033024852 15.336129523969829 16.19787965189845 0 1 1
1777 11 4.3155869037039825 16.901692666956976 15.358685896157025 0 1 1
1759 11 1.892992410652797 11.882686436998144 18.346446158906716 0 0 1
973 1 6.7341121760955165 15.747621990450819 18.64006817532597 0 1 1
277 1 7.42082319380627 12.320307374011497 15.643760785928453 0 2 -1
1328 15 9.478360098056596 15.071054706979028 15.70221801536748 0 0 0
2890 11 7.384011082183969 18.6916707547776 15.218793779621514 1 0 -1
171 1 5.363496483789208 19.213752590771314 16.361329500088054 0 1 1
2453 11 0.5407722737386729 15.299255737804337 18.89329045295886 0 1 -1
227 1 9.61980296584538 10.515704771079095 16.425156893353815 -1 -1 1
2040 11 2.4473627792224777 13.00261619830669 15.30754130251251 0 -1 1
567 1 0.4110100182916412 11.5118089642719 16.49165292852651 -1 -1 1
975 1 9.764343171987688 13.757377486718996 21.178113854316422 0 0 -2
2449 11 7.934037655226233 18.874175854653753 22.501900026542398 0 0 0
1150 15 1.9535390952883847 15.361295240476606 22.49908139153517 0 0 1
2999 11 5.720289153171848 11.442052662001112 20.917725218529295 -1 -1 -1
2231 11 2.875397317969069 13.593708645276495 21.303826613515085 0 0 -1
776 1 2.2833906985020356 11.416968764737668 22.356972324001624 1 -1 1
1526 11 9.567421481661182 15.865741851281264 22.26453061951183 0 -1 0
2015 11 6.032820500074352 16.141042384196684 21.189241026859733 1 0 -1
1828 11 2.678619543563566 17.1765242786093 21.629523016242693 1 -1 -1
439 1 4.593014860779429 16.565677843489265 23.222971198112344 -1 1 -1
1136 15 8.038845675932388 17.048303935579767 21.217144272485772 1 0 0
2768 11 9.213189477044589 11.336282973939815 22.10141715233189 1 3 0
1298 15 6.933549906140767 11.589629313909267 22.74479202255344 1 0 -1
263 1 5.297626244640039 13.834247755615786 21.433452179836394 0 -1 -1
2274 11 6.579210837143494 10.291659659765488 24.428298566969836 -1 -1 1
2256 11 6.448945536053099 13.631001514712674 23.452695788266354 1 1 -2
2552 11 3.03596036890146 15.130765997273148 24.346623378239386 1 -1 0
687 1 8.273780769231026 14.908312208739792 24.65682957555724 -1 0 1
782 1 0.6782320757668133 17.534865145791347 20.308111936015404 1 -1 1
549 1 4.31198641254975 16.860884229597232 19.960329857637117 3 0 -1
83 1 1.8155763960923852 13.772658411374687 26.040165984694713 0 1 -2
2917 11 4.366005553705817 19.145099218260036 24.897142109775857 -1 -1 0
2854 11 9.320486921035986 12.976478018809514 25.815031464428415 -1 0 0
1622 11 3.7454851251349925 12.876992511572519 27.109490011164116 1 2 0
1140 15 3.265220694752633 14.2102852781934 28.737986333742043 1 0 0
2400 11 5.509484766800922 16.27137946821078 26.507128655855414 1 0 0
95 1 5.899442931860242 17.024108990272524 29.006258912620755 1 -2 -1
1455 15 9.12935219747556 13.490624656656605 27.952880918542817 -1 0 -1
389 1 9.889555963162591 17.284848555333344 27.642702309345786 2 3 -2
130 1 4.825451235916663 13.882180913044175 25.29331947805198 -1 0 -2
1567 11 2.48817749463148 16.229059213092782 27.967779511770818 2 -1 -1
46 1 2.9038617274077954 17.118747803918 25.779013042972082 -1 0 -1
2104 11 8.153587630567188 15.461005976754864 28.49572332535267 0 1 -1
1833 11 7.396816160744641 12.110491385152205 28.518250276132317 -1 0 0
194 1 8.319028565548448 18.99998196770361 25.175159954325405 -3 -2 0
817 1 7.7043744464296156 11.079220702467206 26.348452212711685 0 0 0
1853 11 7.867468865666671 19.428371714964804 27.61127369945123 0 0 -2
2356 11 6.3182110598137715 16.94769605625027 24.818992353447495 -1 0 0
425 1 2.360157917234594 10.712625591970232 28.019071041293454 1 0 0
2287 11 3.6875828883532664 19.565633117125603 28.245764324933802 0 0 0
2037 11 9.94048608864348 17.08690381558665 25.381536236718016 0 1 -2
1978 11 0.4724442266874413 17.416804851460316 25.39207294392143 1 -1 -1
1841 11 1.3232073856918696 11.865755256959696 24.77553013479142 -1 0 -2
1481 15 0.4094074939857677 16.2736601583975 27.26191727971105 1 0 -1
655 1 6.341542592196812 13.002487247864895 30.61112206427998 0 0 -1
1532 11 4.753528400303898 14.83626998671937 30.150676517803742 1 0 0
1780 11 7.1332948056923104 17.247501672059233 31.057765623008624 0 0 0
1240 15 7.811198726270779 19.010346079567093 32.35215028037515 0 0 0
1960 11 9.083416058803545 10.209977467833275 31.175143039900252 1 0 -1
1111 15 8.880801707382826 15.738906382325787 30.616792882482596 0 1 0
1083 15 1.9432008309057864 17.83034167508014 33.24816692268129 0 1 -2
2296 11 8.050057037117982 13.9814413386049 31.92757547526281 -1 -1 0
2938 11 4.942357994563586 13.295867250178425 33.69853003363615 1 2 0
2325 11 1.5821214009617155 10.79938015801822 32.57788929222415 -1 0 0
2658 11 1.482693812629064 13.979626272238155 33.92988407798344 1 1 0
938 1 3.0711799487164875 12.539288317697912 31.85326648970527 0 3 -1
2272 11 9.416880461298646 18.03337092735997 33.33602212138161 0 -1 0
2844 11 1.1394270614341118 17.05925415590176 31.354098029234493 1 0 0
2165 11 1.677384416557405 13.158736928284933 29.801226334135425 0 0 0
2247 11 5.516462202825885 10.848794751070152 31.311699698143048 1 0 0
1649 11 3.9952355418777294 16.813756783696768 33.411927928942674 1 1 -2
934 1 6.164245705300381 15.363141615802254 32.59990897103732 -1 -1 1
2789 11 4.577296672724072 18.99879774497311 30.075200624903978 0 0 0
416 1 3.4302891022663724 17.01715796380961 30.57643969379349 1 1 0
259 1 7.348376755594821 11.649178307141991 33.04715583140136 1 -1 -1
969 1 0.7703726000367462 14.853100562429846 31.15609686755317 1 0 0
1065 15 7.235832617533135 10.328758982807612 30.046052343597474 -1 0 -1
240 1 9.994450581633435 12.61332531975836 31.361063161120743 -1 1 0
940 1 8.547465227296701 14.520266943282678 34.10712783512007 0 -3 -2
2531 11 6.0347598704886805 19.68601983606667 33.770390660126445 2 1 -1
1669 11 3.2877224747374822 11.282015770297694 36.6386030803736 2 1 0
664 1 2.0398671359833136 16.915044528287986 37.065608890126214 2 0 -1
2848 11 6.306480847200221 17.18863530437179 38.75791687092691 1 0 0
362 1 2.278197312855977 13.192399634323104 37.58812717493751 1 0 0
2408 11 3.621671819483347 18.668040253390824 36.91261062570155 -1 1 -2
496 1 5.015032595744736 17.67466812856773 35.14866982068324 -2 -2 -2
2898 11 6.945842680369976 16.283304278087936 35.02717586568493 0 -1 0
1055 15 3.4298806146138556 14.800230492208799 34.49316489642656 0 0 0
472 1 8.591157732717953 18.237149730068136 35.61633229816507 0 0 -2
1353 15 0.9694719585794589 11.386658213294888 34.69565583425369 1 0 -1
1457 15 5.998551777291973 15.441669490968772 36.91776865314798 1 0 1
2947 11 3.757574233913821 15.09910989204836 36.801024054695496 0 0 0
1180 15 4.80083712217672 18.668134880790586 38.775775881784554 2 -1 0
2437 11 6.467629409739369 13.011485748432747 37.06721278194828 1 1 -1
2733 11 6.5301156212232145 10.348143987300888 35.025540705690275 1 0 -3
361 1 8.663858937366609 12.36205685385246 36.890926777596164 2 -1 1
1115 15 5.187155438293686 11.948886940154738 35.550485385590754 1 1 0
2729 11 6.4591634696936255 10.169041341170363 38.75697237857278 0 1 -1
572 1 9.050570289684362 19.339601605440322 38.63008632417448 0 -1 -2
1661 11 9.24729462552166 12.029751178486022 34.47725818289406 1 0 0
2025 11 0.6049971940353429 17.44872219514595 34.83957263361869 1 -1 1
1872 11 9.901199485818124 14.31933704052075 37.85741064499315 1 0 -1
2888 11 9.826642030539997 10.120734312144872 37.7149372964595 1 0 0
1443 15 1.6421937939281686 23.41174415492422 1.6132834790442352 1 0 1
1436 15 4.54861533730223 29.298224897338052 3.2509988890902943 0 0 1
2952 11 7.972612588841653 22.989002345545067 2.048249962511313 1 0 1
16 1 1.708534844231163 27.90453706630205 1.016805763010727 1 0 1
18 1 4.182064942574721 25.881560906531917 3.0077944492943933 0 1 1
1644 11 2.0749901604341 25.523252109797582 1.8363616868032626 -1 -1 1
1409 15 6.902479384646052 24.94618299372174 1.7561332905951863 1 0 1
2090 11 6.519006774418019 25.476903421960802 3.8551168522678867 2 0 1
2502 11 5.2318443219324475 24.62273064602269 0.413534346066561 0 -3 0
650 1 4.128376187681513 20.926938011605095 1.9302117039470987 0 -1 -1
915 1 1.1985254703716814 26.67466020809613 3.8438234850137167 1 0 0
2595 11 8.300477000453682 26.683036482452255 1.0099550522216352 0 2 1
2724 11 2.5265945373680667 22.272812270520934 3.190417876404663 -1 0 1
744 1 7.150238036471017 20.82368493050904 2.366593117352931 1 1 3
2893 11 4.404695355683545 28.0739630716814 1.5039644041481508 1 0 0
1265 15 5.006418295809896 22.468151023681834 5.094083286238466 0 -1 1
34 1 8.419919267717413 23.348973183588328 4.348508294968759 0 -2 -1
2188 11 5.549116790532486 20.10692084902821 4.0035031443581435 2 0 0
2268 11 3.429804592565467 28.044588845359808 4.685438788454071 1 0 1
1546 11 9.814615450043839 25.136948062182768 4.985130180205334 -1 0 0
1611 11 6.587247466156586 29.483873808611573 3.858883929926709 0 0 1
98 1 8.168430669278559 27.160956850658938 4.697751685733909 0 1 1
243 1 1.6926132952731598 29.52994323202686 4.706326947553027 2 -2 0
1516 11 9.068197873191368 20.942589462332343 5.127878628399321 0 0 -1
1325 15 6.062391978961192 24.332866233556103 7.8073007977892175 1 -1 -1
1381 15 1.4357307463561177 21.429217112508557 5.324910072480876 0 -1 -1
158 1 5.584700110105026 28.320992142077216 6.111266898425862 2 2 -1
2772 11 6.8837766314650155 22.738667258143003 6.39095741581412 1 1 0
1962 11 8.708664032983977 21.465051417137598 8.983851330846662 1 0 0
1950 11 1.2505708130276623 25.0684019958229 5.6154020786698995 1 1 1
2649 11 2.218406808161595 27.91041777075108 8.773078008830712 1 0 1
2208 11 7.926044889149134 28.310292991106078 6.8371686384518835 1 0 0
1153 15 2.5168226948828547 25.788712417513782 7.510015911483304 0 1 1
1953 11 2.2193889030602305 20.407533734944238 9.009992678123613 0 0 1
2659 11 3.2657959871076567 22.054844103140567 6.619847808310413 0 1 0
1865 11 1.772855440147549 24.493659378242032 9.22482748732956 1 -1 1
2943 11 4.859278755955475 25.995346129649356 6.738163085796835 0 -1 0
2448 11 8.145346868279018 24.996848588000045 8.46154054042558 1 -1 0
2369 11 5.1001581765279775 23.58742915258371 9.646880078973991 0 1 0
6 1 3.0367960450992886 22.41513712383807 9.9696107079735 -2 0 1
2604 11 5.933483757974733 27.483116631358985 9.853956688031635 0 0 -2
493 1 9.942976116088012 27.563397125222266 8.329660960465633 2 -1 0
548 1 4.207436761239919 19.95732516513205 8.115137759708288 1 1 2
786 1 6.7813605149643355 29.52970343528233 8.694352657993258 1 -2 0
1007 15 3.364334364317586 28.66184653245598 13.51668896978026 0 0 0
856 1 7.052371234419988 20.737046271032224 14.200981178627114 2 0 0
252 1 6.529336106361944 29.076174605669355 11.757981781936296 2 0 -1
1426 15 9.500630201386281 29.041353673692218 14.507646507763189 0 0 -1
2953 11 7.4513123694487575 21.756445103947716 12.206642581022113 1 -1 0
2454 11 9.497932043227003 27.42442588954816 10.7143573636692 -1 -3 0