ITEM: TIMESTEP
130000
ITEM: NUMBER OF ATOMS
3000
ITEM: BOX BOUNDS pp pp pp
3.3821502479196042e-01 3.9297483011164758e+01
3.3821502479196042e-01 3.9297483011164758e+01
3.3821502479196042e-01 3.9297483011164758e+01
ITEM: ATOMS id type x y z
1758 11 8.59593 6.61206 4.64898
637 1 0.783502 8.62208 2.25045
2539 11 1.48559 2.02757 0.70398
28 1 5.86024 1.99413 1.37225
1444 15 4.32066 9.14309 3.12037
2498 11 1.71843 5.60203 1.21616
1471 15 2.92711 3.80431 0.594564
2338 11 9.08036 9.31158 1.98573
795 1 7.54205 7.76417 2.87753
1645 11 7.85093 1.11684 2.54857
1122 15 7.93255 2.2467 4.46205
24 1 3.36728 1.0814 1.87239
2225 11 2.33552 4.05172 4.81367
1729 11 4.3407 3.59559 2.1606
2616 11 6.34567 3.87231 4.30199
2558 11 2.52692 8.34119 4.20974
351 1 2.82013 6.18264 3.27513
327 1 4.16457 2.5455 4.88486
2088 11 4.92744 7.35803 1.91226
2942 11 6.41387 9.39209 4.11275
936 1 9.6243 5.00077 2.87344
2520 11 10.0536 2.99041 4.56598
697 1 9.86648 8.86501 4.88427
2054 11 0.340102 0.440475 4.35122
17 1 2.71558 6.04701 5.90831
71 1 1.68472 1.58716 6.09607
1662 11 1.98624 8.76551 9.39002
2006 11 6.70605 0.64467 9.40622
1439 15 3.10421 6.97731 9.89837
2416 11 5.16549 6.81621 6.08893
1031 15 7.36901 8.68543 9.29178
2377 11 2.71743 5.17629 8.32777
1922 11 3.78692 1.54323 7.35324
2727 11 7.48225 4.6204 7.72215
756 1 9.75959 4.92732 9.70783
1352 15 3.21094 3.16543 9.46218
114 1 5.88022 2.5197 8.06578
313 1 5.20215 5.5846 8.38909
2809 11 7.78728 9.14194 7.23922
1279 15 5.7758 9.15528 6.21515
2766 11 5.45089 7.4735 9.61771
2058 11 7.00026 1.1845 6.18837
1313 15 7.00908 5.52991 5.74158
111 1 9.52839 6.86049 7.44996
828 1 9.57981 3.20767 6.96113
213 1 0.349112 4.5801 8.96835
1554 11 8.92665 7.18293 9.91719
534 1 2.13472 10.0465 6.73401
1491 15 7.86201 1.65608 11.2183
2718 11 4.07948 3.74614 13.9461
2752 11 3.23365 0.415738 10.7122
2553 11 0.836555 5.32467 14.2389
229 1 6.46207 4.3579 12.9747
2219 11 8.4018 3.74745 11.0599
1382 15 2.51119 4.73917 12.9001
2055 11 1.4759 3.63429 11.1916
2032 11 7.58651 9.76713 14.7779
302 1 5.38739 8.56171 11.8604
1393 15 7.79834 7.4618 14.6143
2487 11 8.3928 3.71446 14.2643
2078 11 6.32207 1.24167 12.8366
381 1 0.761665 7.68999 13.3261
488 1 1.06637 1.20444 11.2996
66 1 6.92313 5.75735 10.6669
1525 11 6.44503 6.69707 13.1748
85 1 4.35827 2.17522 12.0529
2802 11 3.14274 6.92553 12.2561
2497 11 5.13098 3.88197 10.3045
2029 11 0.338358 1.70898 13.7217
406 1 4.24373 7.03486 14.503
2292 11 9.92104 6.82407 13.9564
2477 11 9.65546 0.428717 11.4475
2811 11 7.72032 6.66695 16.6095
675 1 2.79258 4.14487 18.6801
893 1 1.25715 5.73123 16.8372
1927 11 1.76517 7.75921 18.0416
836 1 8.65373 3.56594 19.2384
930 1 3.47253 10.0243 17.8484
1269 15 3.60197 6.89556 18.581
1897 11 6.77203 2.43937 17.3157
2309 11 3.44859 1.90523 19.2925
1981 11 3.78841 9.26979 15.4682
52 1 6.18006 4.90653 17.3922
1948 11 3.46955 0.904848 17.5813
1814 11 3.9421 5.40152 17.0345
401 1 1.07111 1.07904 18.0915
1362 15 8.53307 2.4998 16.0609
2954 11 5.20824 8.33532 18.9065
143 1 9.80816 5.44582 16.1843
110 1 5.94208 9.36476 16.7258
775 1 4.34417 2.31145 15.7613
825 1 7.55653 7.32936 18.8445
2810 11 9.32888 0.524791 15.3747
2713 11 0.719395 3.17402 17.5005
2228 11 6.83385 5.14579 19.6393
346 1 5.48033 0.413275 23.3042
86 1 8.52423 7.94498 23.798
1748 11 3.36873 5.80912 20.5305
2080 11 5.39071 3.41646 22.4422
43 1 7.80799 2.99678 22.7902
1420 15 5.449 5.32575 21.4627
2001 11 9.2099 7.99077 20.9404
2879 11 9.11978 4.91319 23.7864
2242 11 9.29639 1.95063 20.8228
2062 11 7.7299 0.867325 23.9872
1753 11 6.34107 7.06526 22.5678
2249 11 1.04969 3.08959 21.1847
1802 11 0.996585 9.63533 20.9838
654 1 8.455 5.76822 21.5959
63 1 1.55347 1.2512 23.0027
816 1 5.43437 8.79655 21.2561
236 1 5.81011 2.34382 19.9176
2626 11 3.6547 9.16007 22.632
612 1 2.07363 7.12849 22.5163
1299 15 5.07208 8.34714 24.3067
393 1 4.43669 4.01688 24.6493
2587 11 3.5297 6.03649 24.6238
712 1 8.45248 2.80511 28.0642
1417 15 6.73901 0.97333 26.0056
2950 11 0.922737 6.35747 27.255
1737 11 9.62502 9.63116 27.4501
1047 15 8.33758 4.74211 25.7411
455 1 6.47518 5.27046 27.7075
778 1 4.10832 2.62988 27.6703
2074 11 4.10046 5.40875 28.2094
1694 11 5.54202 1.54555 29.3236
2524 11 3.3447 8.85585 26.6587
2480 11 6.60029 3.35088 26.3624
2386 11 4.10593 1.38175 25.4406
1213 15 1.99064 1.21704 26.1898
2295 11 1.98995 2.03241 28.1906
1192 15 3.08415 6.67645 26.7272
1082 15 8.64475 7.44085 28.3644
1684 11 7.63764 6.87351 26.1585
1849 11 6.61191 8.69118 28.981
314 1 2.03883 4.39621 28.5433
2707 11 8.83931 0.468459 27.3272
322 1 0.719556 8.54258 26.7036
49 1 0.637545 4.99002 25.3741
2763 11 0.87307 2.66814 24.8069
2908 11 2.9892 8.34889 29.8925
257 1 4.96936 3.04238 33.5902
1043 15 7.88762 6.03101 33.9528
2438 11 7.22277 2.0001 32.0731
1884 11 2.36538 1.48616 32.0005
292 1 0.906257 7.00687 30.0864
2371 11 9.59407 4.82968 33.3257
9 1 9.15257 0.603172 32.0782
1462 15 2.38613 3.62624 31.7633
974 1 9.83784 4.60215 30.7267
639 1 8.14152 2.95213 34.1713
1547 11 4.52436 4.46669 31.4255
726 1 4.85216 7.04912 30.3103
127 1 5.8005 9.08264 32.8612
2246 11 7.2156 7.07822 32.2013
1005 15 6.23973 3.25213 30.5068
491 1 4.69857 5.77597 33.3973
1209 15 2.31458 8.70109 31.951
2414 11 3.74497 8.08361 33.6002
2066 11 2.68659 4.44563 33.9008
988 1 9.26113 8.25794 31.9606
1521 11 0.80221 4.39974 30.4347
1666 11 0.499815 7.44842 32.4004
981 1 3.46827 0.90394 29.9861
2716 11 7.65251 4.70317 29.6086
585 1 2.9623 0.475977 34.2736
1262 15 8.63745 2.96717 38.4866
1052 15 9.42357 6.41345 37.2513
848 1 5.95519 5.40237 37.1982
2368 11 3.83467 3.85495 37.6438
2648 11 4.93473 1.36209 35.4168
1689 11 0.73656 9.05191 35.4369
296 1 9.56499 9.96255 35.2956
270 1 3.85808 9.19352 35.6436
2701 11 1.58045 8.64794 38.9176
62 1 2.74052 6.22849 37.4934
2485 11 0.879375 2.02865 36.177
1513 11 6.6976 3.72355 38.9648
2571 11 8.54639 7.55352 35.4895
2130 11 6.3176 4.74522 34.6182
136 1 3.15127 1.25749 37.5706
1924 11 4.63058 7.51959 37.0816
651 1 5.64925 2.15 37.5801
1483 15 0.794692 4.06369 35.1934
1509 11 8.43469 0.998281 37.6603
1926 11 9.31868 4.21046 36.6137
885 1 6.71935 8.56782 36.6069
1148 15 4.45873 8.77229 38.9863
1478 15 8.28061 9.18868 38.9113
2026 11 0.721186 5.82994 36.4245
2913 11 7.97091 6.90297 38.8558
2145 11 8.35151 0.45289 34.4594
732 1 1.84776 6.97469 34.6749
2522 11 1.63368 13.5238 0.820975
849 1 7.96118 11.2507 3.24051
770 1 1.92445 10.73 3.29392
1715 11 3.64301 10.7687 1.76187
1257 15 7.76397 17.0721 2.62818
1705 11 8.70097 19.2737 1.88387
2440 11 3.15095 18.6207 1.45601
1335 15 2.03666 14.6571 3.46816
2673 11 9.69342 11.3517 5.14134
2385 11 7.68865 13.14 1.54613
344 1 3.13772 16.3379 0.904442
2743 11 6.17903 12.6062 4.61099
1272 15 5.45435 13.2524 2.48426
2434 11 1.75891 19.0306 4.53459
1848 11 4.22834 15.3289 3.0122
37 1 3.89391 18.4659 4.13884
1764 11 0.863796 16.8402 0.505633
1717 11 2.48477 12.6447 4.67722
1252 15 9.68151 14.3408 1.34361
2709 11 7.99324 17.4958 5.00408
2973 11 4.69241 14.2516 7.44829
2465 11 3.12614 16.5548 9.60187
2523 11 2.47538 12.6839 9.6291
1128 15 7.44657 15.1498 6.45325
1996 11 4.37984 10.648 7.13514
1023 15 3.38603 16.1106 7.38813
1357 15 9.61007 12.6363 7.15953
403 1 7.88725 12.35 10.0157
1149 15 7.19939 19.7086 5.84781
1700 11 1.14615 11.7978 8.28763
1657 11 7.10167 16.7972 8.21773
1710 11 7.51615 12.9539 7.65807
1158 15 4.34912 12.6868 5.90777
2072 11 1.58214 15.692 5.96511
1261 15 9.17782 17.1797 8.87659
2783 11 4.41568 17.7151 6.41064
2782 11 9.85419 14.7075 6.36024
548 1 4.56875 19.3106 8.17104
1379 15 0.441313 17.5259 5.38246
557 1 0.675593 13.7682 6.93612
2568 11 10.076 15.1194 10.0184
588 1 4.89364 11.2105 9.84479
1036 15 2.30331 10.4752 14.1735
262 1 1.39835 10.4812 10.9933
459 1 3.75557 12.8991 12.1265
2038 11 5.3545 12.9374 14.1251
2151 11 3.41274 10.4459 12.1772
510 1 9.57583 18.3078 13.6734
1468 15 6.43453 13.8364 12.4626
1600 11 9.17798 18.4141 10.7927
1816 11 2.4294 15.0279 12.2488
251 1 5.4424 16.1626 10.2473
2775 11 2.81701 18.7844 12.4318
717 1 0.882551 14.1958 10.6622
1012 15 1.24644 14.2028 13.9347
1921 11 8.44655 12.9471 12.1249
619 1 5.35778 10.4015 14.0307
1757 11 5.36065 13.5831 10.5537
2424 11 6.86857 16.0402 12.607
785 1 2.8817 16.7888 13.69
520 1 9.09095 15.2411 12.1095
1389 15 6.54652 16.7439 14.7385
620 1 8.46041 10.6443 12.627
1410 15 1.90741 18.3746 10.3421
2175 11 6.84636 10.2819 10.6828
2046 11 5.71812 19.6105 10.2327
2890 11 7.60009 18.6148 14.943
2453 11 0.51214 15.2408 19.0192
2390 11 8.17188 13.7981 19.0809
1846 11 4.45868 18.9935 18.513
1545 11 5.65018 11.8032 17.2242
421 1 2.80529 16.5003 17.2051
616 1 4.85222 14.0101 16.1806
1979 11 2.42963 18.7655 18.1548
2931 11 4.17304 15.0003 18.4428
2260 11 9.80377 12.7697 15.5049
1243 15 6.99958 12.0666 18.8465
690 1 8.70294 19.5211 17.2974
1063 15 2.38642 13.9256 19.2397
2838 11 8.49077 17.662 18.9287
2040 11 2.14192 12.4805 15.2684
2489 11 7.47749 15.1992 16.0849
227 1 9.36834 10.396 16.4489
1759 11 1.96107 11.9558 18.3695
973 1 6.75371 15.8597 18.6129
277 1 7.28682 12.4823 15.5343
1328 15 9.7213 14.9731 15.6701
2846 11 0.834599 15.9599 15.3166
1777 11 4.49722 16.9222 15.3155
2166 11 8.41345 10.342 18.554
171 1 5.17146 19.1404 16.0987
2552 11 3.13607 15.1363 24.4918
2449 11 7.75981 19.252 22.1772
1150 15 2.05982 15.3342 22.5624
2999 11 5.82495 11.7815 20.7529
2231 11 2.83172 13.5037 21.4444
776 1 3.12631 11.0131 21.3162
1526 11 9.44419 16.1035 21.9963
2015 11 5.97947 16.3601 20.9271
1828 11 2.53921 17.2951 21.7076
439 1 4.6519 16.9175 22.9984
1136 15 8.01161 17.3812 21.0799
2768 11 9.2223 11.5895 22.1952
1298 15 7.09592 11.8973 22.7214
263 1 5.21966 14.1211 21.2705
975 1 9.52653 13.986 20.967
2256 11 6.58218 13.9637 23.2923
549 1 4.30472 17.0193 19.8396
1841 11 1.29228 11.9079 24.0247
2274 11 6.84284 10.2106 24.1904
551 1 2.58063 10.111 24.4313
1159 15 9.64919 10.155 20.4083
687 1 8.62729 15.2489 24.3561
83 1 1.95235 13.3807 25.656
389 1 8.86198 17.5983 27.6382
2854 11 9.1052 13.1289 25.8404
1622 11 3.78497 12.8866 27.0596
1140 15 3.38895 14.401 28.6617
2400 11 6.04297 16.0335 26.2708
95 1 6.36231 17.0977 28.6185
1455 15 9.10921 13.4763 28.0047
425 1 2.44964 11.1558 28.1077
130 1 5.09561 13.7486 25.1289
1567 11 2.54911 16.3327 28.0877
46 1 2.6905 17.3411 25.4614
2104 11 8.48365 15.5337 28.6525
1833 11 7.30355 12.2418 28.5484
2037 11 9.76194 17.4841 25.4784
817 1 7.87625 10.7477 26.4365
1853 11 7.48835 19.3225 27.9309
2356 11 6.53565 17.235 24.7356
2917 11 4.53627 18.9489 24.796
1481 15 0.468237 16.2223 27.2195
655 1 6.30701 13.3653 30.7488
1532 11 5.03565 15.2126 29.9225
1780 11 7.10383 17.2224 31.2256
1240 15 7.72782 19.1949 32.2991
1065 15 7.33097 10.585 30.0513
1111 15 8.96182 15.8575 30.8424
1083 15 1.9178 18.0131 33.339
2296 11 8.28324 14.039 31.9038
2938 11 4.95329 13.5343 33.7567
2325 11 1.61536 10.7999 32.5564
2658 11 1.52617 14.0951 33.7184
938 1 3.30361 12.4768 31.6934
2272 11 9.45937 18.4423 33.3595
2844 11 1.37765 17.3441 31.3392
2165 11 1.88917 13.1245 29.7507
2247 11 5.74345 11.2259 31.4366
1649 11 4.10838 17.009 33.4596
934 1 6.34178 15.6261 32.9328
1960 11 9.18504 10.5 31.3266
416 1 3.72046 17.1741 30.9329
259 1 7.81171 11.5288 32.9678
969 1 1.13376 14.8318 31.4844
2789 11 4.46129 19.4456 29.749
240 1 10.0258 12.6785 31.3046
1669 11 3.32655 11.3136 36.425
664 1 1.82203 17.4937 37.1183
2848 11 5.92693 16.9587 38.715
362 1 1.80282 13.4195 37.2718
2408 11 3.70589 19.1099 36.881
496 1 5.51282 18.1974 35.2684
2898 11 6.93768 16.372 35.2555
2025 11 0.570477 17.5456 34.9905
472 1 8.72945 18.3657 35.7513
1353 15 1.25045 11.57 34.7632
1457 15 5.75629 15.5009 37.0127
2947 11 3.41353 15.4743 36.6469
1180 15 4.68265 18.8653 38.7439
2437 11 6.37291 13.3084 37.113
2733 11 6.5153 10.3144 34.8881
361 1 8.60199 12.3252 37.111
1115 15 5.25825 12.1125 35.5527
1055 15 3.31758 15.1169 34.4844
1661 11 9.29411 12.3048 34.7698
2888 11 9.74819 10.3185 37.6685
813 1 1.66886 11.1952 39.2516
2729 11 6.42962 10.1617 38.5233
940 1 8.41553 14.5854 34.5857
1443 15 1.43353 23.4484 1.89047
1436 15 4.23992 29.0725 3.44081
2952 11 8.15152 22.9592 1.99637
16 1 2.04958 27.9855 1.18123
18 1 4.25557 25.9024 2.93741
1644 11 2.19938 25.5244 1.98272
1409 15 7.03875 24.8549 1.56461
2090 11 6.43834 25.464 3.72424
1516 11 8.96392 21.1498 4.99619
650 1 3.91788 20.7908 2.01308
1611 11 6.11543 29.2563 4.5562
2595 11 8.45721 26.5868 0.866357
2724 11 2.20179 22.0125 3.46845
744 1 7.14245 20.8891 2.40548
2893 11 4.48528 28.0905 1.53428
2451 11 5.74928 20.7142 0.389799
34 1 8.14536 23.5915 4.37833
2188 11 5.58177 20.2514 4.0845
2268 11 2.97179 27.5269 4.70578
1265 15 4.87503 22.5498 4.9193
915 1 0.77959 26.9156 3.66957
1546 11 9.91582 25.4385 4.71142
243 1 1.27874 29.5106 4.57097
182 1 6.86785 28.5051 0.426068
2502 11 5.32217 24.6045 0.391668
1325 15 6.14143 24.4785 7.9575
6 1 3.41285 22.0743 9.39521
158 1 5.32136 28.1692 6.48971
2772 11 6.74896 22.9341 6.32081
1962 11 8.61909 21.2798 8.77104
493 1 9.96514 27.4126 8.09938
2649 11 2.32093 27.6687 8.89113
2208 11 8.27906 28.5344 6.80113
1153 15 2.26925 25.7473 7.58414
1953 11 2.16868 20.1135 9.03274
1381 15 1.57648 21.205 5.68028
1865 11 1.85114 24.1724 9.30901
2943 11 4.74896 25.7296 6.90978
2448 11 8.17044 25.2325 8.2004
2369 11 5.20767 23.7293 9.72527
2659 11 3.56141 21.6717 6.68479
2604 11 6.26538 27.7677 9.91817
1950 11 0.911957 24.6978 5.72438
98 1 7.94257 26.5688 5.45468
1007 15 3.50678 28.4467 13.5483
856 1 7.31456 21.0116 14.2464
252 1 6.85009 28.6423 12.0119
1426 15 9.54912 29.0044 14.768
2953 11 7.80252 21.8024 12.0674
2454 11 9.74418 27.6258 10.519
1326 15 3.0355 20.7945 13.4531
1088 15 7.83156 20.2662 10.4315
475 1 6.15263 26.0041 13.503
2271 11 3.95378 26.4364 12.6867
2940 11 7.54613 25.0833 11.8691
120 1 1.29466 27.8795 11.1452
2567 11 7.75503 27.8301 14.2197
206 1 2.48478 24.4247 13.1536
385 1 5.55724 22.2921 11.5647
908 1 9.86484 22.0739 13.4622
2361 11 3.17972 22.4492 12.0359
1582 11 1.40931 29.1248 13.2619
39 1 9.27932 26.4471 12.9591
1237 15 7.98768 26.4543 10.2106
1703 11 10.0252 24.3649 14.1344
803 1 8.48837 23.4518 10.492
1571 11 4.89046 21.1714 14.6708
356 1 4.33123 26.1772 10.3403
621 1 2.22587 24.1583 18.6044
1995 11 2.69103 24.2153 15.4515
33 1 6.93103 25.7284 17.7262
153 1 3.97657 28.792 18.4058
965 1 1.34915 20.8698 17.8969
2471 11 9.47401 28.848 17.1321
452 1 2.69042 26.471 16.3337
1330 15 4.80019 21.0385 19.496
1952 11 6.21723 24.446 15.6157
146 1 0.709821 27.7985 18.0812
2017 11 8.9176 21.7183 15.8502
2351 11 6.26991 27.9961 18.0898
355 1 7.96513 23.1749 18.8279
2221 11 3.77591 22.3305 17.8921
2297 11 9.39214 24.8243 17.523
2172 11 2.63843 26.6547 18.8528
2668 11 7.04032 21.031 19.0463
2820 11 3.6103 28.5007 15.7665
1024 15 8.5336 23.9617 15.6667
1116 15 4.45035 23.047 15.8537
982 1 6.00437 28.4432 15.6782
1963 11 6.04601 24.7656 19.6769
2796 11 1.48154 20.7223 15.0977
767 1 4.43642 23.5603 21.6172
2417 11 4.08687 27.7072 21.8913
1318 15 7.38091 24.8711 21.3222
2794 11 2.11912 24.5781 21.6517
2771 11 4.23188 21.1704 21.5373
2030 11 6.38498 24.2507 23.1
777 1 2.01063 23.6701 24.0338
315 1 5.71471 27.1865 20.1525
1489 15 8.81876 20.9727 20.8129
2372 11 9.11034 23.5698 20.9648
2889 11 0.588444 27.8435 21.4436
2095 11 8.36133 26.9544 21.2876
820 1 5.33589 26.4518 23.5262
812 1 0.93118 29.12 23.4514
1046 15 2.41572 26.7349 21.0091
579 1 5.83273 20.1744 23.2203
1049 15 8.52144 28.1665 23.271
642 1 8.92911 22.7553 23.2595
2330 11 2.83294 20.087 24.1432
179 1 0.394337 23.1189 20.8624
2617 11 9.68008 22.4146 28.2212
1178 15 8.51703 23.7014 26.8174
2059 11 1.01964 28.201 28.8681
7 1 2.69751 22.3665 28.0091
2462 11 6.95157 27.6254 24.7126
2749 11 2.3782 21.6505 25.3258
2016 11 6.70713 22.4732 25.9271
193 1 5.64535 20.7496 27.4676
1270 15 2.66901 26.1711 26.2076
2199 11 7.65546 25.5895 27.5778
1183 15 9.03854 20.3594 29.038
2901 11 1.79772 24.9475 27.8784
819 1 2.19669 29.001 26.8965
2300 11 3.97024 24.9302 25.0261
1827 11 9.89503 23.9318 25.0874
2144 11 4.05807 27.6201 27.3769
2792 11 5.24325 23.0537 28.7336
220 1 5.52115 24.7101 26.9384
831 1 6.61483 28.0659 27.0254
1709 11 0.943575 27.0975 25.2866
592 1 9.22268 26.5367 26.1202
1215 15 8.99798 28.7082 29.411
2287 11 3.56901 19.9595 28.0859
1475 15 3.11759 26.6152 29.3442
1919 11 7.83504 21.0845 24.7094
2281 11 3.74777 28.1955 34.3424
2816 11 7.29057 27.5088 30.3608
2215 11 4.21944 25.3784 31.1415
1854 11 0.789151 23.299 34.1089
1730 11 8.36872 20.9433 31.1348
169 1 3.40177 20.659 31.5423
1602 11 8.12742 22.7085 34.2118
1051 15 8.14555 26.2 32.1323
388 1 9.81134 21.7529 32.8365
2370 11 8.50596 24.4433 31.0215
2918 11 9.61609 26.9149 33.5622
2858 11 2.07534 20.1508 33.3711
2777 11 4.84829 22.5379 32.3689
703 1 4.67766 24.4471 34.0393
70 1 5.52734 27.776 32.5079
2482 11 1.91862 22.3592 30.2507
282 1 7.06383 22.9293 32.1598
1064 15 3.91496 23.2627 30.503
15 1 1.98778 27.3137 32.8258
2422 11 6.59776 26.036 33.7076
1697 11 0.849267 25.6712 31.4506
1770 11 3.89328 28.6014 30.8092
331 1 0.609505 22.0195 32.2091
390 1 6.63871 25.1264 29.7877
521 1 9.7825 29.3192 33.2875
2531 11 6.01729 19.8422 33.6414
728 1 9.88994 28.9239 38.3087
2154 11 2.3706 28.2394 37.6887
2957 11 4.98863 22.3712 36.0288
294 1 4.65803 22.4105 38.3291
1968 11 8.36655 24.0404 37.2055
64 1 7.8059 27.9538 35.4407
714 1 8.86262 25.0011 35.0416
648 1 1.42201 20.0306 38.7456
2591 11 2.15429 22.3967 38.944
2886 11 3.60641 25.0728 36.4263
354 1 3.07579 20.9738 35.2894
21 1 6.02379 24.9136 37.0052
2974 11 7.81848 20.1874 36.7045
1035 15 3.78005 27.23 36.3728
1127 15 6.70889 21.3084 35.2509
561 1 8.06189 21.8777 38.617
429 1 1.37977 23.2938 36.395
2557 11 5.9039 27.5968 36.9139
1077 15 9.54849 25.4771 38.1561
2982 11 0.557187 20.9517 36.7117
2814 11 10.0244 26.9226 36.6092
791 1 2.95278 24.8909 38.8196
113 1 9.63076 21.8561 36.0798
474 1 0.357275 26.7759 37.1531
2622 11 0.747058 26.7502 34.6055
992 1 5.64028 29.5353 35.3816
1310 15 4.44328 35.4815 4.24751
1850 11 9.62707 30.488 1.46644
799 1 1.92706 34.4216 0.642133
1201 15 2.13672 38.1581 3.84153
611 1 6.20866 35.0339 0.731642
2195 11 0.505816 29.6888 2.05134
402 1 6.19371 38.2798 2.50731
225 1 4.54913 32.6366 1.50939
2555 11 4.13697 34.872 2.1476
2051 11 3.57995 31.194 3.44173
1882 11 6.99985 33.2385 2.30131
1394 15 1.62644 31.6643 2.23628
151 1 8.01955 35.2663 3.09999
2248 11 6.17138 30.7475 0.608749
2676 11 6.35025 36.8499 4.50964
370 1 7.57392 30.8481 2.98696
2103 11 7.67167 36.8282 1.01346
2346 11 1.62209 37.3797 1.83406
285 1 3.80481 37.1672 0.791827
1095 15 8.61134 32.847 0.75081
2445 11 9.66018 34.9041 4.70006
1590 11 0.691573 33.6217 2.8279
2570 11 3.95504 39.2935 4.02343
2250 11 9.48047 31.4665 4.85976
1603 11 2.40682 36.3595 5.19885
2788 11 4.79736 39.1763 0.463635
2412 11 8.02014 32.951 7.47985
1302 15 2.72016 29.9403 8.54313
1734 11 8.53504 36.8194 7.91749
1510 11 1.76177 30.7066 6.64788
1239 15 8.24628 38.9506 7.88725
2155 11 4.78896 33.9027 5.60679
932 1 4.12151 31.1347 5.99233
598 1 5.05143 38.5656 6.10271
492 1 3.45958 35.2448 7.19094
1244 15 3.22808 38.6942 8.62483
1157 15 9.78461 33.2842 6.24438
2598 11 4.5311 36.985 8.25542
1783 11 1.01253 38.3113 8.22773
2958 11 1.53543 34.3407 8.71266
201 1 6.71227 35.3623 6.79629
2022 11 4.7513 30.2637 8.13214
442 1 8.55857 37.0005 5.5463
1264 15 0.935971 36.5082 9.70832
1488 15 8.29304 32.887 9.83497
1155 15 9.93016 29.8317 6.25804
1339 15 1.03101 33.5722 5.30412
786 1 7.42555 29.8419 8.65266
2496 11 8.92421 36.1493 13.1437
1044 15 4.57541 37.0997 14.5497
880 1 4.30984 32.1427 13.0925
2116 11 4.95725 29.8841 12.6336
2127 11 6.49594 33.3346 13.8496
1314 15 7.08772 35.0628 12.761
2511 11 9.67646 31.0638 13.9206
532 1 7.88213 38.3538 13.7228
278 1 8.72953 37.2455 10.7279
2091 11 4.12666 33.1191 10.8886
2107 11 7.21511 34.6885 10.4955
8 1 5.19382 38.5143 11.2491
1502 11 0.741571 33.4698 12.2272
430 1 4.91644 30.8601 10.4326
447 1 1.51034 35.3379 13.6495
2684 11 5.24917 36.4363 12.4701
374 1 9.72011 30.3491 10.8202
515 1 1.07082 31.5566 13.513
1918 11 0.6414 37.2892 12.6611
568 1 7.14662 31.0772 13.2918
2137 11 7.55861 31.0247 10.6661
1378 15 1.24871 38.7823 14.2336
1939 11 3.49692 39.1046 14.3219
1308 15 1.99167 33.0804 10.4803
2435 11 1.32235 30.8805 10.1761
409 1 4.6196 35.13 10.1933
2388 11 4.18015 36.7332 18.6958
1386 15 2.19052 31.6978 19.3684
2289 11 8.59173 38.315 18.362
1769 11 5.37205 33.6776 17.7844
946 1 8.92236 36.528 15.5029
1801 11 6.43611 37.4787 15.7136
1739 11 6.69778 30.8299 16.0694
1259 15 3.97281 34.6641 19.0303
260 1 6.90083 35.8156 17.5639
2521 11 8.7382 34.4681 16.6283
2202 11 2.91993 32.3022 15.0233
479 1 4.39642 33.8612 15.5318
2790 11 1.96354 33.9469 18.5758
1 1 7.89274 33.2462 18.5297
875 1 4.49101 31.3372 16.7528
670 1 6.03868 39.0671 17.5116
1338 15 7.68229 29.8462 17.7799
709 1 2.11586 36.8521 17.4137
195 1 1.05096 33.4428 15.9275
1587 11 0.888598 30.4901 17.9708
2381 11 8.28749 31.099 19.4328
2946 11 4.21212 30.9023 19.3363
47 1 1.81505 30.1764 15.7858
1772 11 0.738795 37.7941 19.3863
108 1 8.15902 32.453 15.2261
2997 11 3.02515 35.7326 15.3316
2220 11 0.361123 38.3857 16.1931
1574 11 6.11095 38.9593 20.8483
2503 11 4.70624 31.2881 23.0487
2057 11 8.19675 30.3731 22.9555
1360 15 6.32334 33.0178 22.0138
1260 15 8.24557 38.8897 20.5278
2944 11 5.0252 37.0076 23.859
597 1 9.04481 34.3964 24.091
487 1 5.56622 36.5546 21.025
1577 11 1.4453 31.4224 21.5359
1078 15 9.47451 35.4733 20.916
2341 11 3.00902 38.4696 22.166
539 1 2.81402 33.0364 22.5457
337 1 3.76878 38.6046 19.9861
2222 11 6.80472 33.7152 24.1865
2176 11 4.23593 34.4017 21.2859
2915 11 9.23014 37.563 21.9504
1081 15 1.03672 37.6326 21.5878
101 1 3.18891 35.736 23.2681
2182 11 0.991813 35.466 22.1111
945 1 3.57911 30.0687 21.3762
1138 15 10.0372 31.6295 23.6069
1520 11 7.50292 35.2865 20.0049
1875 11 9.76519 33.3901 22.0409
2516 11 7.73021 34.266 28.2585
1027 15 8.61531 36.4251 27.8382
2333 11 8.15669 30.0922 27.6989
2770 11 5.30007 37.1962 27.6083
2633 11 3.22607 34.3 28.4233
2265 11 2.28942 31.4784 29.0532
554 1 7.32833 32.6551 26.5916
718 1 4.57384 31.0268 28.6449
2867 11 5.3165 31.2039 26.5329
1944 11 8.03233 36.4712 25.6043
1266 15 4.17349 36.1222 29.183
1411 15 5.80633 35.58 25.446
904 1 1.68328 34.8708 26.5421
731 1 0.780445 37.8996 28.2859
1003 15 9.52245 38.5416 25.0783
1572 11 1.52979 37.992 26.0567
985 1 0.706145 33.7677 29.1582
917 1 3.76029 37.9463 25.4436
1749 11 9.74658 32.4019 25.6943
1877 11 1.89089 30.5739 25.2148
1104 15 3.68656 31.8373 25.025
2436 11 3.29334 34.0149 24.8253
436 1 6.35507 30.0346 24.8136
1322 15 9.39637 36.3414 31.549
1912 11 8.48571 36.2507 33.6754
359 1 3.44465 33.0131 30.738
2561 11 6.92167 29.6878 33.2767
2530 11 3.89078 31.8667 32.9111
1907 11 1.6789 34.2416 31.4863
2458 11 5.10701 38.0654 32.8946
1870 11 5.57042 35.2553 30.9775
1388 15 7.09189 33.7726 30.2411
2652 11 0.838797 29.7166 32.1471
1367 15 6.01112 31.5453 32.5027
2353 11 9.33909 33.9694 31.2372
565 1 3.17591 36.574 32.1468
1735 11 6.9453 33.2021 33.9302
1626 11 8.13794 37.5993 30.0091
2120 11 6.21269 31.6202 30.2929
1723 11 0.793269 33.0151 32.7911
2339 11 1.21104 37.7007 33.5954
184 1 6.02691 35.4995 33.4832
841 1 2.69586 30.2189 33.9387
1171 15 9.47369 33.9678 33.7698
1287 15 2.03027 29.6562 30.2621
204 1 6.23427 38.996 31.0134
2612 11 2.68331 37.3812 30.0883
2832 11 10.0565 29.7391 31.0792
739 1 1.02235 34.964 34.2348
669 1 2.45844 33.2971 37.0122
1025 15 3.93195 36.3713 36.412
560 1 8.01132 31.1988 34.7163
2987 11 3.97278 35.3224 38.3485
1914 11 2.39838 37.9994 36.8126
2866 11 7.24921 33.5875 37.7927
2574 11 1.53015 31.105 35.9802
842 1 6.57963 38.1669 38.4299
1905 11 6.11629 37.1031 36.2545
840 1 7.9128 35.4081 36.396
2379 11 3.5014 35.1425 34.4721
584 1 0.822604 38.8486 38.9541
1191 15 6.49729 31.4523 37.5521
2852 11 8.00618 30.1379 36.6828
2108 11 4.60272 31.4013 36.4953
1936 11 10.0323 36.7528 36.9853
1214 15 6.36434 38.8042 34.6679
457 1 0.826129 30.5597 38.5434
892 1 4.08891 29.7298 38.4993
707 1 4.67034 33.0435 34.7889
1062 15 9.69488 36.5663 39.2166
2355 11 2.48631 32.1803 39.198
2596 11 11.6785 6.29056 3.11189
2717 11 15.1253 6.87655 2.25974
2111 11 17.637 6.33124 5.09253
1754 11 13.4395 4.22172 0.391847
1612 11 14.2116 4.19285 4.32095
1041 15 14.1772 1.98348 4.27288
2495 11 13.3868 1.10182 2.36355
67 1 17.6188 5.78473 2.72072
2784 11 10.2011 3.30966 0.957509
2236 11 16.3177 1.35786 4.44524
1132 15 18.2547 2.80165 4.17467
2671 11 17.4709 3.38797 2.08416
2887 11 19.6091 9.76616 3.41149
1396 15 13.5651 5.29118 2.34157
594 1 11.0621 7.85409 1.37497
631 1 16.0557 0.998434 2.18577
1087 15 14.9128 8.27237 0.498089
792 1 10.3254 1.20103 2.2898
2642 11 16.8708 9.71823 0.62038
1852 11 16.1066 9.93606 4.82235
2706 11 13.0492 9.42508 0.438797
2112 11 12.5723 9.90215 3.44398
552 1 11.731 4.76723 4.94042
192 1 18.4183 7.52972 9.66991
75 1 15.591 5.14515 6.18719
2000 11 19.3944 5.14497 9.15051
1530 11 10.3248 1.14077 7.97914
38 1 15.4513 2.15855 8.33402
1915 11 13.2603 1.65177 6.27366
2753 11 16.7531 8.61107 7.95954
1185 15 16.4002 8.04938 5.89996
2395 11 11.4115 8.55662 6.6807
1126 15 12.7067 4.31165 9.02611
1010 15 18.3207 3.15807 8.88963
1105 15 12.9158 6.92493 7.73471
2332 11 11.0987 5.0496 7.4758
1598 11 17.2998 3.09535 7.00723
1672 11 13.3937 2.07933 10.0706
2636 11 14.2629 7.27396 5.72559
2732 11 14.7291 5.18038 8.52257
396 1 14.9978 9.76423 9.31591
622 1 18.518 5.38136 6.91211
1365 15 13.3554 9.46282 5.60688
632 1 19.2837 9.20593 7.53019
2660 11 13.1058 8.34241 9.66772
628 1 12.0618 9.94353 8.49001
2266 11 19.7326 9.58239 9.9559
1820 11 15.1792 1.20996 12.9126
2322 11 19.2777 2.05001 13.9327
987 1 17.4769 10.0362 11.1054
2110 11 16.7768 2.54502 10.419
144 1 16.5818 3.15888 13.1617
1144 15 11.208 8.59718 13.9718
1811 11 11.8094 3.09875 13.2383
2806 11 13.3125 7.93556 13.3182
2320 11 14.9382 4.74251 12.3637
2447 11 18.4004 4.69021 12.6818
1343 15 13.684 2.96078 12.1196
963 1 18.5293 1.65565 11.6256
44 1 14.035 6.70581 11.0202
1408 15 17.9834 6.79055 13.1046
129 1 12.6892 5.74117 13.2126
2475 11 11.8332 5.37639 10.9871
1961 11 16.7384 7.45064 11.3287
921 1 10.561 1.13812 13.4487
458 1 10.9552 8.07434 10.8262
956 1 16.6186 5.04827 10.5826
2801 11 10.7149 9.97817 12.2765
815 1 10.1072 4.75234 12.4773
303 1 15.2197 5.3814 14.718
501 1 14.8732 2.96721 17.3119
758 1 17.8992 5.35363 16.2108
1720 11 16.489 3.49971 15.7564
1301 15 13.1756 6.0588 17.6421
2902 11 18.1282 6.29338 18.6337
2960 11 16.3172 2.03489 19.0878
806 1 17.8943 9.46685 15.7944
2593 11 11.1846 7.0076 18.0343
2237 11 19.3058 2.69724 17.6668
2327 11 13.433 1.34562 16.2093
2754 11 13.8642 4.33453 18.8294
2301 11 14.569 7.7784 17.715
590 1 11.8127 3.24023 15.6466
1300 15 16.5814 8.05347 18.8682
1604 11 11.4864 9.70372 15.8591
1583 11 13.0156 5.35661 15.63
1427 15 18.1598 2.05592 15.8771
14 1 14.7042 8.45601 15.2046
1437 15 18.648 0.562076 18.7746
752 1 11.6933 3.17003 19.3831
2834 11 17.4116 10.0601 18.2021
2153 11 10.1849 3.51773 17.174
663 1 13.7709 8.85102 19.803
2387 11 17.0446 7.25291 14.9683
527 1 17.4892 4.10809 19.7916
2392 11 15.9515 8.24798 20.9048
2605 11 12.8486 2.03855 21.1283
1419 15 18.4162 9.15707 23.1386
1018 15 15.9331 6.39842 23.526
2536 11 14.5058 8.27424 24.06
1538 11 12.8057 4.67868 23.8239
1323 15 12.2632 7.21886 23.7108
2486 11 18.1227 6.90232 23.4334
2968 11 18.5887 2.66619 23.9858
1072 15 14.763 1.10247 20.4267
2343 11 12.8641 7.13395 21.2824
450 1 13.5823 0.38787 23.7776
1880 11 15.9781 4.30316 21.8108
2431 11 10.4406 9.04374 23.9708
1133 15 10.9148 6.68321 20.2441
509 1 13.6203 4.43677 21.5022
1250 15 16.5629 2.53232 23.0714
2750 11 10.4177 4.62371 20.7349
12 1 10.9525 0.733919 22.3669
1599 11 11.3514 1.1044 24.522
84 1 19.6183 6.70455 21.4571
2444 11 19.6968 9.21773 21.3014
2678 11 15.7955 0.432956 22.4272
77 1 15.0084 9.8904 22.2439
721 1 19.7068 4.67102 23.424
835 1 10.8852 3.36502 24.3476
887 1 14.518 7.74945 26.5415
2835 11 13.2435 3.4636 27.7307
244 1 11.0263 1.8463 26.8127
1575 11 17.9776 7.58659 28.9132
2627 11 16.0821 9.77091 26.8067
499 1 17.7513 4.16972 25.8886
2998 11 15.706 5.62658 25.8051
1124 15 13.8565 1.46568 28.5753
2197 11 17.0295 4.17379 28.4494
2839 11 19.6894 5.51312 26.5587
2993 11 14.4261 7.1479 29.0259
112 1 12.4487 5.61743 28.7164
1363 15 17.3965 2.08032 28.6945
1106 15 11.302 8.94124 26.0935
1906 11 19.3541 1.6144 27.7981
1387 15 14.0861 4.04922 25.6307
2488 11 12.1342 6.98 26.2636
1473 15 17.5762 9.69957 28.4652
2240 11 15.2186 2.24391 24.9299
341 1 19.4656 0.692792 25.5933
1900 11 15.891 0.681201 28.0225
2560 11 19.6726 9.53048 24.9628
2534 11 10.0955 4.18442 26.972
1227 15 12.1634 2.46512 31.4993
284 1 18.6894 4.00071 31.2419
1170 15 17.7204 5.91708 33.39
2920 11 17.5975 1.80767 30.9015
1665 11 17.437 8.14028 33.3172
1440 15 12.8666 7.93039 30.363
2687 11 14.9995 2.22349 34.0874
2427 11 13.801 7.53278 32.5362
1681 11 10.8322 6.88787 30.1799
1568 11 13.8809 1.07844 30.8437
210 1 15.9535 7.39276 30.9272
1398 15 19.4372 9.19092 32.8366
2585 11 13.1529 4.37888 31.4178
57 1 15.4635 2.8977 31.8811
2476 11 10.8621 8.70819 33.7132
677 1 11.5898 6.38256 33.1373
2226 11 11.3065 1.91665 33.467
1798 11 16.6648 5.27362 31.6573
2538 11 19.6966 5.00933 33.5335
25 1 14.592 4.93258 33.3606
1454 15 12.8076 9.66655 33.1089
1836 11 10.4567 2.22644 30.1691
178 1 14.9774 4.77002 29.6031
163 1 16.2582 8.04356 35.7587
2905 11 11.4569 6.89415 37.8417
1039 15 18.649 8.49794 38.5712
1807 11 12.419 2.06479 36.7166
2212 11 15.1921 6.81442 37.829
1091 15 13.1181 1.32009 34.7776
1060 15 13.3727 6.94898 36.4274
2311 11 12.936 5.32634 35.1321
1614 11 18.3809 9.08057 36.5909
1861 11 14.0078 8.8351 35.6691
596 1 11.5379 4.05498 38.1068
810 1 18.0588 4.54316 37.109
1987 11 16.5714 5.55637 35.1997
88 1 14.9842 4.08386 36.261
2657 11 16.4249 2.94388 37.682
814 1 16.879 0.587138 37.5884
1597 11 18.1816 6.29866 38.8369
107 1 14.3118 1.80198 38.6227
533 1 11.2397 3.77328 35.0652
787 1 11.9627 9.38118 37.2381
335 1 10.7558 0.442689 37.6577
763 1 15.9252 4.59644 39.1506
746 1 18.3333 2.58097 39.0322
1903 11 17.2134 14.8542 0.652669
2665 11 11.9242 18.7779 4.37694
2911 11 18.0346 15.0752 4.08326
2602 11 15.2501 17.751 4.69648
2183 11 18.0822 18.2282 1.50194
1552 11 13.0333 18.2939 0.85753
2200 11 12.7242 13.3523 4.96853
1177 15 11.5684 11.8279 3.99175
231 1 16.322 16.7749 2.65744
1679 11 16.2554 12.3748 2.9253