ITEM: TIMESTEP
150000
ITEM: NUMBER OF ATOMS
3000
ITEM: BOX BOUNDS pp pp pp
-1.1983624511202251e-01 3.5780847556105968e+01
-1.1983624511202251e-01 3.5780847556105968e+01
-1.1983624511202251e-01 3.5780847556105968e+01
ITEM: ATOMS id type x y z
1460 4 6.15314 3.12688 2.48584
2819 4 6.52494 1.93824 0.1124
296 9 7.55046 3.84908 2.78733
771 9 1.78849 3.35142 3.57478
2170 4 7.97945 3.27749 4.26358
268 9 0.28719 8.06966 1.96781
2459 4 4.5577 3.52186 0.469723
2009 4 7.60796 5.4451 2.92498
614 9 5.50957 2.50766 1.17797
72 9 0.519746 1.23213 2.20892
629 9 3.10902 7.27766 0.775381
619 9 7.50275 6.94562 2.30005
1356 4 6.3594 7.18301 1.18703
2217 4 2.82544 3.75929 2.38108
1983 4 1.76382 7.42193 1.71836
2475 4 7.24107 8.08447 3.49057
463 9 3.38639 4.46533 1.06155
545 9 5.69253 8.59371 0.770025
2390 4 0.391506 4.1502 3.35227
2983 4 4.57618 1.29803 1.67264
2182 4 3.85769 5.93469 1.36408
2847 4 1.49936 1.67514 3.40856
1156 4 8.40776 3.42999 1.48569
1344 4 4.04687 8.62717 0.907058
2065 4 1.13797 0.132431 1.19977
2072 4 -0.0670496 2.61312 1.43347
1580 4 4.70971 -0.0149866 3.99627
1403 4 2.13351 4.55991 0.0118014
1631 4 6.3495 4.42522 8.1793
2258 4 0.297484 6.93337 8.61138
2919 4 4.69141 2.23737 5.45645
517 9 2.36295 2.75062 8.57863
2613 4 4.87403 4.74177 5.79955
632 9 5.80696 5.49061 7.00441
472 9 4.10421 8.04694 7.54545
983 9 3.83741 3.52419 5.93958
2579 4 4.98023 6.63305 7.64063
376 9 4.82953 0.616413 5.4781
1430 4 7.11174 6.12268 6.2173
1264 4 2.47386 3.61015 4.99665
2752 4 2.5075 1.16034 8.30513
1985 4 3.31549 3.53687 7.46971
1341 4 2.66093 7.48259 7.73289
1567 4 6.26018 0.326696 6.24254
2286 4 0.43294 7.16508 5.97369
792 9 0.51879 8.27789 4.77554
1407 4 0.724521 2.84719 8.42898
127 9 8.71369 6.08442 6.48155
1232 4 8.57317 2.85565 8.37919
2391 4 2.16676 8.46323 4.58256
2701 4 4.28284 8.71881 6.12062
2265 4 0.037518 4.86907 7.09925
97 9 0.588447 0.119803 11.8935
2370 4 8.05365 1.41524 11.885
961 9 1.82304 7.30877 9.11904
180 9 2.49536 4.75398 10.8536
1767 4 6.50542 2.55681 10.1806
1601 4 3.41755 4.85201 12.1508
2519 4 2.7388 3.36133 10.0713
2618 4 5.39526 1.45667 12.4583
2717 4 7.2031 6.49423 12.0973
2153 4 2.51958 6.03015 9.79952
85 9 6.65982 2.28651 11.7894
2573 4 6.80862 3.80077 12.4977
748 9 7.23284 8.11683 12.3013
1368 4 0.939803 4.74341 11.3763
31 9 7.85527 4.99143 11.8655
1211 4 8.06618 4.61278 10.2674
920 9 7.34717 3.63534 9.17627
1658 4 0.741654 1.38725 12.8195
1995 4 2.78256 7.26523 13.0584
1741 4 1.8904 0.0153945 10.7832
2371 4 1.75525 8.73383 9.99704
2925 4 8.69465 8.81333 11.8536
2636 4 5.87265 8.84905 11.5629
2782 4 7.71862 0.757166 17.2228
2638 4 1.29198 7.44104 16.8594
414 9 1.74774 4.06733 15.4287
2607 4 2.75783 3.02989 16.1586
153 9 4.34785 2.68168 16.0784
932 9 5.69835 5.43195 15.2843
160 9 8.36485 4.80725 16.3259
945 9 2.53945 8.78142 13.5008
1048 4 5.19678 4.01255 15.7182
2436 4 5.26641 6.49559 16.4146
699 9 2.37043 8.64858 16.6116
2780 4 7.28598 5.29163 15.2623
1019 4 5.04213 5.97008 13.856
1484 4 2.5593 5.2482 14.674
356 9 5.12888 0.5341 13.8217
2755 4 4.64938 1.59959 14.9689
2218 4 0.910273 4.71404 16.685
1066 4 0.837152 3.29689 14.3833
564 9 0.272132 6.15217 17.1522
2710 4 4.82055 2.44801 17.6014
2148 4 8.37492 3.14989 16.5293
1967 4 3.6238 8.21205 17.5003
1046 4 6.99151 8.5102 13.8454
64 9 8.77843 1.93105 17.5834
2094 4 8.11408 5.48467 17.7504
648 9 4.88223 7.28163 17.7723
466 9 3.46446 5.83978 13.4628
1720 4 1.12922 1.45515 20.9523
2514 4 5.16223 5.88468 21.6139
682 9 5.6426 5.3568 20.1705
302 9 4.69865 2.47128 19.2342
799 9 0.545411 0.03229 21.4647
106 9 8.5091 5.77977 19.2472
787 9 1.97012 2.80263 20.8026
1715 4 8.08015 3.10053 21.8207
2283 4 7.1732 5.86082 20.1324
1145 4 3.10979 2.49608 19.6475
1733 4 1.14452 4.06518 20.0647
1684 4 5.49704 1.15167 19.733
1810 4 5.42555 3.77961 19.8967
2913 4 4.77526 6.13069 18.9475
1485 4 0.751617 6.36138 21.2311
884 9 0.077697 5.25903 20.2178
1919 4 3.6022 8.31109 21.4668
1129 4 6.09003 8.24834 18.2544
2060 4 1.14061 8.63523 22.3112
1427 4 2.57577 3.30163 22.2107
1253 4 8.7334 2.42938 19.1629
73 9 2.46916 6.0342 24.485
2355 4 4.11543 2.17683 24.2336
1806 4 4.63606 5.47872 26.0055
2378 4 2.66887 4.3893 24.6734
737 9 1.39999 0.376302 24.4841
2556 4 3.69227 6.43903 23.5381
2870 4 6.55967 7.32569 25.6732
857 9 2.6989 2.98606 23.8234
2034 4 7.04849 4.80066 24.7996
650 9 6.24054 5.69141 25.9117
1231 4 0.584878 0.226349 25.8015
1542 4 1.48399 1.97813 24.1984
636 9 4.1112 0.76726 25.1384
2232 4 1.09294 6.51559 23.9061
346 9 8.29182 2.02442 23.0418
566 9 8.60467 4.24444 24.798
277 9 6.55257 8.4293 24.4456
370 9 0.433253 7.21196 22.6224
2771 4 6.92397 1.22239 23.3357
1921 4 2.63859 6.81176 25.9155
1351 4 5.69885 8.13133 23.1058
2951 4 8.74859 2.61847 24.473
2648 4 8.05051 8.66961 23.8029
2433 4 3.76805 1.33264 26.6281
705 9 4.52464 7.25228 22.3233
1611 4 5.23184 3.04454 28.1451
88 9 1.22765 5.15118 28.6966
754 9 1.1495 7.58137 30.3689
2952 4 4.20052 7.17295 28.0015
997 9 2.81701 1.40351 30.7411
807 9 6.6677 3.90491 28.3162
1924 4 2.65397 8.00971 30.1601
1204 4 0.714026 6.64161 29.1004
950 9 3.54748 6.10833 27.0043
1859 4 6.60273 4.35852 29.8909
1227 4 3.18289 1.79501 29.2245
76 9 4.3879 1.6836 28.1438
1181 4 7.72158 8.04586 30.3342
250 9 4.15072 7.92996 29.4412
2188 4 5.31414 0.435414 28.6005
1626 4 1.51066 4.25356 29.9592
1325 4 6.648 5.25771 27.4731
2240 4 2.62436 5.0968 27.8371
2471 4 5.17804 7.44557 30.6974
1907 4 8.03842 2.9976 27.998
123 9 0.489882 3.30138 30.8081
2315 4 6.30909 0.988861 30.936
1233 4 0.165784 4.30958 27.8957
1242 4 6.69251 8.41321 32.7241
1408 4 6.00849 8.7735 35.1042
971 9 1.84144 5.59614 34.7608
1913 4 5.92028 1.27838 33.4869
2381 4 2.25783 5.04575 33.2453
1737 4 4.0252 1.85376 31.7724
1495 4 0.274374 5.73078 34.2561
2653 4 8.43006 7.78219 34.6402
520 9 0.759064 5.44248 32.7159
2905 4 8.32437 0.859552 34.4585
503 9 6.73956 0.833125 34.7937
523 9 5.61117 1.91475 32.0744
1555 4 2.69453 6.93372 35.1465
1291 4 6.19384 3.45174 32.3425
581 9 6.65649 7.50709 31.4516
1188 4 7.10782 5.94426 31.8693
2623 4 1.05189 6.69008 31.749
2930 4 -0.112075 4.26488 32.01
2671 4 1.45672 2.06909 31.3072
707 9 7.1781 4.37091 31.392
1108 4 8.69433 3.82999 31.3243
1298 4 4.41941 12.5841 3.58274
1130 4 2.49616 11.1806 2.41106
2152 4 6.2126 9.75073 1.80889
37 9 5.67248 13.662 3.75267
317 9 1.28249 10.9496 1.45869
438 9 5.94492 15.3893 1.45341
1635 4 0.431682 12.3956 1.35285
2328 4 0.304241 9.69371 1.98222
2464 4 6.24033 14.0705 2.32005
1816 4 0.998296 15.263 3.23295
1425 4 5.90322 16.6075 2.59221
1523 4 4.37327 15.2989 0.956257
58 9 0.603637 14.0135 4.19598
907 9 1.75507 16.7444 3.4264
266 9 6.20285 9.32604 3.38072
2516 4 3.38426 16.5528 3.3719
421 9 2.94229 11.9438 3.8142
369 9 4.91433 16.4683 3.9446
2121 4 6.86351 15.3731 0.139693
2935 4 1.31629 17.7994 2.21664
2563 4 1.96319 13.1259 4.12222
1168 4 2.647 16.9508 0.243956
2438 4 4.62138 9.12712 3.71518
1011 4 1.82413 10.5793 -0.0921264
411 9 7.086 12.0336 7.98047
2306 4 1.47009 17.3231 4.90911
2751 4 -0.0290814 16.7687 6.98311
1836 4 7.3113 13.6241 8.29881
2090 4 5.51501 11.6053 8.23064
630 9 3.52324 9.3372 4.86818
1957 4 0.511026 12.3911 8.13786
2715 4 7.56611 11.5667 6.52379
1159 4 3.1499 10.8646 4.954
579 9 7.59801 11.6685 4.93418
2696 4 0.465999 14.417 5.73326
1591 4 6.8389 13.0875 4.67269
1183 4 4.48234 9.10021 8.7586
1998 4 -0.0758125 9.65191 5.28061
2863 4 2.95204 11.3619 8.57948
2987 4 5.11291 14.991 4.57694
2118 4 5.16662 17.6101 5.13302
1326 4 6.64812 10.4726 4.38213
2303 4 2.1463 13.7701 9.70013
1557 4 4.47487 10.8966 10.6846
311 9 1.70508 12.2688 9.16998
1896 4 3.57978 9.80742 12.845
674 9 4.94638 10.1216 12.029
625 9 5.80042 17.6155 11.8233
184 9 7.82978 14.2176 9.79195
1089 4 6.01729 16.1496 12.3554
633 9 0.580922 9.83787 10.0778
1778 4 1.68141 16.0511 11.4022
303 9 5.41186 14.8012 11.752
80 9 2.58191 15.266 10.2179
2472 4 4.13354 14.9432 10.8069
1044 4 1.163 11.3186 10.4726
1467 4 6.54739 14.2455 10.7349
991 9 1.19082 16.3967 12.909
1415 4 5.81328 11.2595 12.8572
628 9 4.40531 10.7673 9.03357
2037 4 2.51909 16.4 9.12951
1847 4 5.16368 13.8084 12.9865
1313 4 5.54866 17.5765 10.2089
1063 4 8.68152 15.68 9.72945
2597 4 1.04253 9.18665 13.1139
2991 4 7.94371 11.0219 9.04828
818 9 7.1478 16.5563 16.7574
1823 4 6.93315 12.9009 14.7754
1662 4 1.88237 13.1843 15.5813
2331 4 1.72972 10.009 17.3138
760 9 7.89121 9.48286 14.8135
1773 4 4.31555 12.284 14.9189
90 9 8.35539 12.3572 15.3341
1552 4 3.65275 12.4641 17.469
1992 4 8.25279 11.9781 16.916
2021 4 8.54539 10.9685 14.4901
1365 4 3.76779 16.6822 14.4242
2332 4 8.17147 15.6013 15.8756
479 9 3.45649 13.1628 16.0037
2004 4 3.59494 17.2447 17.0779
1182 4 1.54926 15.2656 13.948
1839 4 4.03462 14.6587 16.0194
963 9 4.27213 16.2701 15.9045
2254 4 6.89293 9.73123 16.0207
1994 4 5.84315 16.6074 15.7677
467 9 0.730718 14.1191 14.7846
162 9 5.59202 12.5371 13.8842
129 9 6.70503 9.68205 17.7083
1514 4 2.69515 8.88918 15.0902
2956 4 1.54213 15.8108 17.8191
1935 4 -0.110669 13.2965 13.6659
582 9 -0.0133285 15.5633 17.3334
1439 4 5.66648 13.5367 18.933
176 9 3.44964 12.0078 21.3304
548 9 2.30959 9.25409 21.3361
1889 4 2.56077 10.7523 21.9214
2775 4 4.14924 11.6806 19.9396
1989 4 2.60137 13.409 21.2114
351 9 4.81113 12.1951 18.5786
1267 4 6.61859 15.9853 18.1553
280 9 8.58359 12.8977 20.7402
251 9 6.22715 15.9322 22.0966
1646 4 1.42957 15.672 20.9888
11 9 2.91495 16.5475 18.3678
2443 4 1.01982 11.8751 18.8909
2466 4 7.09729 12.8319 21.3299
2465 4 5.90269 15.7102 20.5296
1819 4 2.82006 17.8259 22.1282
959 9 0.997245 10.1825 18.6868
909 9 5.54164 15.1976 19.072
1920 4 7.81434 16.3338 22.0583
315 9 1.76393 17.2326 21.059
225 9 1.20825 14.1625 21.5577
1713 4 1.72085 9.31126 19.8315
1751 4 3.90303 15.354 18.8008
2678 4 8.12987 9.83408 18.3983
2416 4 2.51898 17.5272 19.6229
3000 4 -0.0921168 13.4204 20.7545
2491 4 8.73124 12.1014 19.3878
1289 4 5.73933 10.9923 18.0601
2117 4 6.64147 12.2193 23.8481
519 9 1.32018 11.7422 26.554
1057 4 0.900474 14.1827 23.1067
838 9 6.58182 11.4489 25.2458
1126 4 6.19732 9.8917 25.0948
2474 4 7.90468 11.6703 26.1251
515 9 0.61679 14.0692 24.6703
2741 4 1.21408 12.5777 25.1222
1452 4 1.28365 15.4035 25.3959
1833 4 6.00062 14.5542 22.9966
978 9 6.11141 13.0043 22.5474
2640 4 5.25953 11.9649 26.0567
2902 4 5.61813 16.9499 25.0927
1393 4 5.31631 17.0949 22.639
371 9 6.07199 16.784 26.656
2463 4 7.64622 16.6466 26.7515
229 9 1.38697 16.3327 26.7429
2059 4 4.65166 12.3624 22.3563
2368 4 8.31446 14.2799 26.3397
1021 4 0.463948 10.3414 26.7629
2229 4 6.86232 10.608 30.0325
576 9 8.15924 9.64623 30.0194
1453 4 2.88991 16.1873 27.2511
2445 4 3.56675 13.6153 27.3014
1727 4 4.91013 11.9563 28.6625
2337 4 3.31312 13.0911 31.1484
2350 4 8.78793 9.63078 28.4303
2031 4 5.40821 15.4628 27.2675
2544 4 0.982521 15.8925 30.3288
1671 4 4.04649 15.051 29.4084
975 9 4.32352 14.3079 30.8089
500 9 3.96359 15.1053 27.818
350 9 5.21669 10.6865 29.718
1590 4 8.45792 13.2867 30.6209
1792 4 0.746796 12.7802 27.6967
2931 4 4.56832 9.46049 28.9862
1716 4 2.84119 11.2368 26.984
1238 4 0.182511 15.9265 27.7849
2907 4 5.83658 13.9222 30.8632
69 9 4.13835 12.1148 27.2043
1436 4 1.60723 11.0983 30.9805
2069 4 4.38423 10.7905 31.0888
1763 4 0.224432 8.86848 30.9114
137 9 1.22666 17.1763 31.2584
534 9 3.91266 16.1789 35.5706
623 9 0.321087 13.808 33.8933
1219 4 0.764795 10.0282 33.3438
78 9 0.309888 10.2943 31.7149
2498 4 7.0777 17.506 33.5944
1582 4 7.42472 15.1818 32.2371
689 9 1.62783 11.1121 34.2524
2084 4 3.26997 15.2436 34.4332
2770 4 0.975259 12.5611 34.544
1587 4 1.35478 14.3712 32.7802
1882 4 7.66619 10.4447 34.2239
439 9 8.13827 12.0093 33.9317
269 9 2.59846 15.4393 32.9927
2920 4 2.93326 11.2896 33.2509
1255 4 8.26164 13.1657 35.094
334 9 8.09387 16.4063 33.1076
2260 4 3.98434 15.354 32.047
2022 4 7.12318 12.654 32.8102
2015 4 1.75755 16.8289 32.7527
2857 4 8.75831 15.6445 34.36
2007 4 5.05819 17.1792 35.1266
665 9 3.056 11.537 31.671
854 9 7.23729 13.7268 31.5887
1268 4 0.208206 17.5154 35.616
575 9 8.33744 14.7164 35.6063
933 9 7.31019 8.89386 34.2065
2562 4 0.126289 14.9989 34.9615
314 9 4.9425 22.8247 3.32217
43 9 6.21197 22.2416 0.750784
794 9 7.52547 24.3448 3.29082
2506 4 3.99168 24.1089 3.59296
173 9 2.80017 25.067 3.0672
1223 4 6.65032 25.2966 2.21216
2386 4 7.00371 21.0471 1.49653
2374 4 4.90549 22.6281 1.6663
2055 4 3.26734 25.8 1.71043
2243 4 1.37079 24.2417 3.0291
1391 4 4.31713 21.6727 4.24326
2247 4 7.1917 23.5466 0.516387
130 9 6.43275 25.0642 0.603108
1966 4 6.46595 23.1562 3.74183
749 9 8.07188 20.0086 0.814522
1489 4 7.40473 26.2939 -0.00999348
2376 4 2.70009 26.2729 4.15948
353 9 1.49495 17.9365 0.592654
1951 4 7.26992 18.8245 0.00891756
2672 4 1.20608 22.0451 -0.0825072
1576 4 0.111004 26.4157 3.3567
2104 4 1.91771 19.4275 -0.0516653
74 9 8.03431 22.1287 7.12765
1752 4 6.88231 25.8707 7.04084
1355 4 1.88276 23.3569 8.35479
1695 4 3.84 22.693 6.64663
528 9 0.726965 20.6414 6.43158
1461 4 8.10769 21.1972 5.79649
624 9 5.62029 18.6708 6.2711
1774 4 4.88299 20.1665 6.22863
15 9 3.5591 23.2311 8.1943
1689 4 2.26062 20.7486 5.87251
2457 4 7.19312 18.7703 6.18909
2077 4 0.0728082 19.1821 6.05683
572 9 8.166 25.1736 6.2432
471 9 3.8048 21.3283 5.77502
2317 4 6.51628 22.1603 7.79547
1693 4 4.05036 24.8559 8.32288
1006 4 5.53673 18.154 7.80431
2160 4 0.0885143 21.8558 5.6125
1526 4 0.490358 20.5912 8.08798
2253 4 8.29873 23.6146 6.59105
1505 4 7.83315 25.3333 4.6215
820 9 8.56342 19.5838 5.84817
1187 4 2.31146 18.0621 7.24412
811 9 1.00729 17.847 6.33436
1092 4 2.46692 24.8729 10.537
2185 4 6.77401 22.8872 10.3626
2469 4 7.68392 25.4491 10.4323
210 9 0.290716 21.7328 11.7632
1315 4 1.27096 21.3121 13.0125
2486 4 4.49799 18.2673 12.5135
1166 4 4.26831 22.2156 9.2917
866 9 -0.0608928 19.7587 9.34753
962 9 6.58337 24.3889 10.9481
2978 4 1.38728 22.5558 10.8864
1964 4 1.03224 18.5401 9.56404
142 9 3.87132 25.3489 9.92385
2354 4 6.70503 24.5821 12.6026
337 9 8.5013 18.1171 12.7666
1539 4 5.04686 24.7086 10.7274
864 9 1.35662 23.8406 9.8591
1052 4 5.99646 20.2199 9.56662
1609 4 7.09241 18.5512 12.0559
842 9 5.88959 21.9076 9.29232
696 9 5.19272 18.8585 9.29409
1584 4 3.54036 19.0894 9.37219
914 9 2.4197 18.041 8.89691
2753 4 2.08177 26.0707 13.6256
1579 4 2.99663 24.9372 16.0751
2774 4 3.27673 21.626 14.8628
1203 4 8.22059 20.4575 15.7632
2027 4 5.62393 21.0435 15.9777
205 9 7.63592 24.5398 16.2476
2901 4 6.77876 25.3623 15.1004
533 9 1.85428 22.0758 14.3512
1216 4 3.46081 20.3558 17.3068
2230 4 3.88384 19.1983 14.8417
1738 4 0.859163 21.6259 15.5361
1812 4 7.62161 22.9147 16.0349
594 9 8.4996 18.8651 15.7723
1690 4 4.39011 24.887 13.8917
374 9 4.0242 20.5375 15.8028
927 9 2.85787 24.9982 14.4498
618 9 5.96988 25.5085 13.7036
133 9 3.44489 18.1279 13.7572
255 9 7.15991 21.4172 16.5535
2677 4 2.07826 23.6344 14.0044
189 9 3.10743 24.4232 17.638
2611 4 8.12479 18.1486 14.3303
1797 4 7.80608 18.038 16.9704
1796 4 6.96478 25.0147 17.6884
1885 4 1.89894 17.8859 13.3633
2180 4 0.366641 18.0071 21.5194
89 9 2.93107 21.7336 21.3165
295 9 7.82119 21.8197 19.6417
1214 4 1.64152 22.7063 21.3076
2159 4 3.14318 21.0741 19.7854
1110 4 7.18072 21.4061 18.1992
680 9 2.53151 21.4121 18.2899
586 9 5.78279 25.9334 18.3601
1585 4 5.71854 24.6939 21.1359
1904 4 6.30254 26.7063 19.7018
1475 4 1.66214 25.2245 20.9385
1520 4 6.64588 22.2075 20.788
496 9 5.7103 23.1885 21.6794
38 9 1.26352 24.074 22.0513
94 9 6.71964 25.9739 21.0799
957 9 1.29368 25.8372 19.5309
2396 4 4.34508 25.166 18.4724
2456 4 1.72891 24.8424 18.3351
1529 4 8.26291 25.4501 21.0191
1320 4 4.20395 22.7123 21.7334
2933 4 0.925956 21.3261 18.2094
2993 4 8.59819 23.2536 19.5054
2581 4 8.75718 20.7478 20.4467
2393 4 3.38218 22.8624 17.8807
2936 4 2.51625 24.8623 26.0135
2903 4 7.29043 19.7846 26.5568
2675 4 6.29671 23.1619 23.2053
2537 4 4.00843 18.903 24.1874
1623 4 4.27848 23.3903 24.8297
1462 4 1.4241 19.1567 24.0217
915 9 7.02665 20.2295 25.0079
313 9 0.859397 19.2945 25.5565
1091 4 6.62759 19.0344 24.0105
2502 4 3.8674 25.9252 23.924
1674 4 8.46637 20.7378 24.5062
1383 4 5.85765 21.3652 25.0869
1717 4 2.10843 24.147 23.4758
25 9 5.79717 22.9721 24.7161
1801 4 6.83303 23.7423 25.6453
607 9 3.2018 24.5863 24.5506
2259 4 1.75734 20.5726 26.1282
584 9 2.73919 19.0868 23.194
1928 4 7.29577 26.4203 24.868
654 9 5.32731 18.0591 23.9367
763 9 8.64821 26.665 25.8302
2102 4 8.72004 25.2667 26.6516
453 9 8.11014 23.7551 26.6642
2821 4 0.94767 17.8996 26.3012
2663 4 2.80286 20.5273 22.3727
1962 4 7.50584 23.4364 28.1623
984 9 4.46341 21.3912 29.1496
413 9 2.7762 26.3125 30.0692
553 9 2.33562 19.6223 30.1226
1734 4 7.59659 18.7241 28.9219
1405 4 7.3185 22.6249 30.8719
2779 4 2.57222 25.6332 28.6094
1307 4 3.34304 21.7797 27.9433
29 9 6.47242 19.2872 27.8957
1644 4 5.74777 20.6658 28.4846
1163 4 1.73954 19.7803 28.59
233 9 8.16225 22.604 29.4654
1709 4 1.35139 20.652 30.8851
2198 4 3.8447 20.2131 30.0788
943 9 1.63524 25.4549 27.2726
2162 4 4.90329 22.6435 29.9987
816 9 1.87424 21.0846 27.7
2082 4 0.579257 22.0291 28.0599
832 9 8.79136 19.6185 29.4931
1031 4 5.51619 18.0549 27.6027
1971 4 8.45412 21.1038 29.0255
2805 4 0.328394 24.5241 27.5509
2586 4 2.40205 18.1319 30.6762
2575 4 4.32866 26.5654 30.4544
1827 4 8.80429 19.5772 31.0743
1047 4 2.0924 25.319 31.2229
865 9 1.00729 21.6147 32.1176
836 9 6.25684 18.2791 34.7432
2245 4 5.42635 19.502 34.0486
2277 4 0.639814 24.743 33.3669
475 9 2.03373 24.4064 32.5975
925 9 5.73121 22.8289 31.4043
1170 4 1.02134 20.709 33.5118
1064 4 3.40072 21.1804 34.5498
1672 4 3.21531 24.657 33.7267
1225 4 5.75174 21.9056 35.1639
2402 4 2.04296 22.8326 32.1905
431 9 4.15314 25.7675 34.4236
2125 4 5.25545 21.7785 32.568
931 9 4.93099 21.0585 34.0212
837 9 5.36509 26.0728 31.6313
692 9 1.88883 20.8264 34.9517
2005 4 5.51484 24.4118 31.7042
1691 4 4.98693 26.4768 33.1879
2202 4 5.07797 25.0033 35.5782
1593 4 1.53002 33.5883 0.23539
1832 4 8.05877 30.8262 0.611205
2878 4 5.16844 30.3887 2.34053
1653 4 6.95612 32.2741 2.56478
297 9 6.07462 31.1748 3.37486
2650 4 1.2615 33.841 2.86874
2358 4 1.1743 27.3153 1.11373
55 9 2.78395 27.1202 0.852019
2203 4 5.82069 27.9724 1.62192
1042 4 3.42496 34.8067 1.81202
2882 4 7.84486 33.5491 0.570765
48 9 4.64399 28.8234 2.36327
1673 4 6.87039 30.0965 4.29679
1701 4 3.30683 28.5871 1.49337
846 9 1.89567 34.5988 1.4722
1346 4 6.05502 34.9292 1.9567
151 9 7.23574 27.7204 0.786574
2890 4 8.43324 27.9123 1.91893
885 9 6.39891 34.2431 0.556718
923 9 8.13731 32.2241 1.43056
2114 4 4.20489 28.4377 3.93064
270 9 0.174092 32.9058 3.61041
1914 4 0.471143 31.2941 3.48374
2899 4 0.165961 28.8654 2.99417
1499 4 5.30502 33.0808 0.104421
544 9 4.64012 35.7198 2.39938
742 9 0.0293861 27.4952 2.20973
1541 4 5.91818 33.4749 6.49961
1705 4 1.19619 32.6636 7.67112
2979 4 1.85709 30.3386 7.01345
2954 4 1.1129 35.0973 6.76383
1201 4 8.62325 30.5288 6.20411
1988 4 5.95751 30.8931 6.7192
1317 4 2.19074 28.0292 5.81479
1636 4 7.03177 28.4476 6.25737
468 9 6.96558 34.7703 6.68072
2423 4 8.28363 34.5997 5.75249
979 9 7.09721 30.0286 5.89428
100 9 3.42902 27.4457 4.96443
2553 4 7.67083 34.6603 8.25588
1222 4 3.60076 32.2856 6.4546
980 9 2.55123 31.6716 7.57935
247 9 5.12238 32.158 6.04141
2098 4 0.183944 28.4422 7.56904
603 9 0.338207 33.6474 6.75325
814 9 6.0469 27.2572 6.74487
1086 4 5.46892 27.784 8.19975
20 9 1.74675 28.7395 7.21832
2880 4 2.72403 28.1701 8.38452
399 9 2.50412 35.6704 7.44761
1647 4 5.21191 32.1537 4.39217
2977 4 0.327475 33.209 5.16355
2359 4 3.61011 35.7519 6.27409
2778 4 4.68519 26.9231 5.91512
2860 4 2.89962 34.6037 8.68598
2591 4 7.20539 31.8902 12.4146
944 9 5.69328 31.4608 12.5484
1013 4 0.696384 34.6986 12.7868
1119 4 1.40586 28.1953 12.1264
1026 4 3.14747 31.4966 9.08658
1830 4 2.6788 30.4847 11.6391
338 9 3.83063 30.7922 10.4562
1516 4 8.14317 33.4633 10.5785
306 9 1.2806 33.2304 12.3663
2854 4 4.6116 29.4052 9.99755
312 9 1.80352 34.5804 9.85758
1795 4 3.93074 26.9092 10.1329
2656 4 1.88339 33.274 10.8013
556 9 8.67451 33.7237 9.11248
1096 4 5.03205 31.7074 11.0505
1877 4 0.109935 32.1358 12.5017
791 9 2.3611 29.3889 12.8253
2226 4 5.69958 29.9485 13.0366
299 9 8.41899 32.9288 12.0674
1698 4 0.230923 34.6078 9.29079
859 9 4.21111 28.1366 9.09619
652 9 0.862836 27.0242 13.1267
2757 4 8.41338 34.0195 13.2596
1357 4 5.95045 27.1684 13.2853
2091 4 2.49588 32.9258 13.3246
308 9 5.21407 28.5514 13.7694
1308 4 5.3703 28.7741 15.3537
2758 4 7.87203 34.3349 15.889
1180 4 3.84487 31.6045 17.4625
717 9 2.70789 32.7247 17.0869
526 9 7.97376 35.0264 14.4145
1144 4 7.54434 28.4327 16.8372
499 9 0.448963 30.7573 17.2512
2606 4 3.36594 33.4808 15.843
532 9 0.0925286 29.3765 14.5106
1746 4 5.02843 32.4438 13.7418
397 9 5.96924 28.558 16.8289
1786 4 1.4085 31.8758 16.5725
2001 4 4.06063 35.1226 13.7705
1927 4 1.65999 29.9905 14.2259
305 9 3.80228 33.5073 14.2195
2801 4 6.41576 35.5574 14.2621
817 9 7.65515 35.0459 17.3567
2601 4 5.30419 27.1904 17.3215
2058 4 0.184085 27.6929 14.4305
1381 4 5.67574 29.7762 17.7884
2746 4 3.60677 28.6057 13.3909
2681 4 5.20612 31.3641 19.7918
1777 4 1.73444 29.5034 20.9055
956 9 2.0559 28.9628 19.4106
1422 4 1.96837 27.3256 19.4148
199 9 5.48906 35.4626 19.4251
42 9 2.6589 34.1111 19.8075
340 9 4.32005 31.904 21.1268
1527 4 3.93261 35.0651 19.5922
1379 4 5.36364 32.7842 21.9602
367 9 4.53931 30.607 18.5491
1800 4 7.99105 32.8122 21.179
2934 4 3.85345 30.6062 21.9548
1546 4 6.2211 34.8402 18.1418
1559 4 1.39338 34.8058 20.5755
2990 4 3.12107 32.9105 20.7956
1463 4 6.40964 34.792 20.6202
1622 4 3.56846 29.4925 19.2685
222 9 6.69103 33.6936 21.7323
2917 4 2.2043 33.6283 18.3398
2924 4 1.23398 29.5428 18.1214
809 9 2.64269 29.6692 22.2506
2835 4 5.28109 28.1713 24.1989
44 9 6.7518 27.6083 23.8566
203 9 0.328861 30.3119 24.1268
2950 4 7.79077 28.7681 24.1996
1279 4 3.12962 28.2194 22.7053
318 9 1.66293 28.3513 26.1364
2689 4 0.568015 29.1349 25.2458
1398 4 6.99969 34.4363 23.1419
1348 4 8.21016 30.7028 22.709
364 9 3.78948 27.5677 24.0655
1977 4 2.98961 27.9877 25.3145
2052 4 1.79337 30.4397 23.4232
1707 4 5.3577 35.7061 24.8697
2964 4 -0.0542315 31.7548 24.8728
2404 4 8.00267 35.5094 25.1654
701 9 6.85325 35.7212 24.1003
1473 4 0.728019 35.6058 23.0296
1617 4 6.69149 26.99 22.3758
1648 4 2.88077 35.6365 24.7002
2856 4 0.993369 26.8737 26.6959
2761 4 2.08982 27.7922 29.9734
874 9 8.52919 34.5533 28.8874
1138 4 2.81362 33.0534 30.1225
2314 4 0.274017 29.645 29.049
509 9 3.36604 34.2927 31.0064
1285 4 7.09601 34.674 29.5079
889 9 2.15693 31.6354 30.5707
1937 4 0.498012 31.8151 30.6472
1457 4 2.62644 30.3497 29.7136
163 9 1.77994 29.1785 29.0439
830 9 8.62039 29.951 30.6036
1890 4 2.20811 28.9666 27.5177
1001 4 4.95297 34.6016 30.7024
2548 4 8.58595 33.9343 27.3966
181 9 5.92286 35.6598 29.9175
2637 4 8.4702 29.6095 29.0251
902 9 8.34077 27.0573 30.941
1033 4 8.52703 27.9842 26.8287
1990 4 2.59348 35.7083 30.9552
2079 4 8.62386 27.002 29.3111
2976 4 8.04072 30.6778 33.8461
1493 4 7.4906 28.6746 35.3852
2912 4 1.2538 32.8545 33.7203
815 9 7.57433 31.7842 32.7026
1822 4 2.64153 31.3008 32.1261
2921 4 3.43529 33.8192 32.5703
271 9 5.28936 32.1163 34.725
721 9 2.76656 32.5224 33.2139
1606 4 3.69482 31.9928 34.3538
1515 4 6.25031 32.514 33.402
2944 4 5.68236 30.5924 35.1803
164 9 7.27382 30.1952 35.1944
658 9 0.475389 32.897 35.147
2635 4 6.16941 35.3277 35.2904
2497 4 8.83198 32.8456 32.2885
2767 4 8.78241 28.5606 31.4816
1390 4 -0.00642151 31.3936 35.4277
2236 4 3.36966 26.9889 35.2345
1748 4 7.35545 30.8438 31.316
1843 4 6.77444 26.888 31.3394
2833 4 15.5912 3.51156 2.50871
1521 4 15.3247 6.10825 2.32953
1239 4 11.0073 3.63113 1.33763
2299 4 10.774 1.28168 3.03246
847 9 16.0141 4.77809 1.54229
489 9 15.1258 6.08662 3.98392
12 9 14.2788 3.40007 3.53334
1394 4 12.9445 2.81834 2.71893
738 9 11.3013 2.82968 2.77713
2049 4 16.132 0.294517 0.733722
783 9 9.62277 3.8561 0.487818
2626 4 10.6542 3.63859 4.04486
2373 4 15.4783 4.60376 0.0254297
2018 4 17.6286 4.87963 1.59938
448 9 9.31739 6.96264 -0.0743624
1115 4 14.0469 4.90395 4.25281
46 9 11.4874 -0.103599 3.38861
2167 4 15.3501 0.117322 3.21336
2766 4 12.836 0.0346255 4.31899
2642 4 8.87065 7.26867 1.49673
1071 4 14.0868 7.27179 7.14876
1237 4 11.9503 7.46253 5.29709
778 9 9.95553 2.32862 7.69176
1257 4 16.2755 2.14278 6.87309
1070 4 14.8703 0.182826 5.83645
1670 4 9.33031 4.57129 6.2295
2622 4 13.5874 2.16033 7.04107
1451 4 11.6943 6.60247 8.20433
1760 4 9.09172 6.68121 7.97242
585 9 13.248 6.1608 8.05561
1015 4 14.8349 2.36103 4.64013
1787 4 13.4652 4.70204 7.4218
1193 4 11.2448 3.30543 7.93121
1714 4 9.3657 7.07637 5.36793
777 9 12.8658 3.2693 8.05984
21 9 14.8692 1.76318 6.14399
2646 4 9.65137 2.1361 6.10523
766 9 9.41142 3.42173 5.07261
960 9 13.4683 7.91763 5.7713
118 9 10.3593 7.61686 8.32322
442 9 10.4679 8.20447 5.48555
1798 4 10.4151 0.893993 8.31894
2413 4 10.48 8.78588 7.0701
894 9 17.5939 1.43054 7.53156
1327 4 16.6027 5.93541 4.73882
2728 4 17.3196 8.4429 4.60429
2733 4 14.4991 7.44938 4.55614
17 9 12.7295 2.7645 10.9922
1040 4 9.41706 4.98511 12.4091
551 9 15.0813 5.93832 10.5421
62 9 9.35446 1.05023 12.7707
1073 4 14.9114 7.03499 11.7068
1862 4 15.4455 4.49282 11.1914
2476 4 13.4606 3.19903 9.57223
1545 4 16.3303 6.22352 9.58794
1898 4 16.3454 8.66244 13.2794
391 9 15.2415 3.49394 12.4514
1912 4 13.728 6.1283 9.60231
1666 4 16.299 2.33448 12.767
2649 4 11.5554 3.89685 11.2248
2320 4 13.797 2.76337 12.2067
2687 4 12.1331 1.26243 10.9023
861 9 10.6531 3.94794 12.626
516 9 11.9868 -0.0953092 11.7832
1854 4 10.0971 8.33829 9.69331
546 9 15.0997 8.5489 12.209
136 9 17.7067 7.05609 9.56597
1312 4 10.1084 2.48039 13.0577
1761 4 17.6884 8.5044 10.2371
2975 4 17.0691 0.936134 8.99963
1226 4 12.909 -0.108859 13.0966
290 9 10.8521 8.52308 15.0042
1759 4 12.3955 5.32663 16.153
1814 4 12.8009 1.58655 16.2861
2620 4 17.3417 4.02684 15.0642
2928 4 9.84748 5.18259 15.7429
2967 4 15.3727 2.46116 15.68
2176 4 11.2811 7.02124 14.4112
1050 4 11.6338 4.49406 13.7623
1758 4 14.9082 0.583015 17.5427
157 9 15.7641 3.93239 15.1763
19 9 11.254 5.50841 15.0148
59 9 14.3697 1.15662 16.0974
1378 4 15.3392 4.95037 16.3565
1837 4 9.28786 8.65502 15.0455
2625 4 10.3308 1.50143 17.1508
2394 4 11.3518 8.52843 16.5516
2023 4 15.0982 4.40053 13.7845
685 9 11.818 1.9137 17.5755
1311 4 14.697 -0.0116685 14.998
897 9 17.7283 8.11264 13.8672
1953 4 9.0115 0.348844 14.2439
1544 4 17.8151 7.88551 15.4877
592 9 12.3429 4.94822 17.7844
2280 4 11.6083 6.06254 18.6989
758 9 9.13136 3.22857 20.562
2012 4 16.2675 6.09826 18.5649
481 9 11.0243 7.3676 19.4415
2483 4 10.6268 2.74881 21.1329
1056 4 12.4037 1.13764 18.8941
2042 4 9.46628 4.68192 19.9032
797 9 15.387 4.82237 18.0194
2403 4 11.5436 7.23913 20.9477
2008 4 17.3394 1.02001 18.1393
942 9 10.8403 1.297 21.8966
2377 4 16.1565 3.42619 18.5906
2383 4 13.8263 4.87685 18.4584
640 9 17.7251 6.65081 18.6667
2808 4 9.37623 7.13979 19.2891
671 9 17.5133 2.5774 18.555
1756 4 15.7472 0.0608497 19.9913
1283 4 11.5506 8.80408 18.9062
2495 4 11.6334 3.50924 17.8609
2262 4 11.0935 0.031463 20.8262
935 9 16.1429 0.0658153 18.4281
2676 4 9.20496 4.50403 26.2981
1448 4 9.32557 0.96217 22.4879
2836 4 15.8411 2.89629 25.7928
2477 4 14.2226 2.31041 23.8489
2558 4 11.8935 5.90022 25.482
896 9 11.3498 5.05262 24.1847
355 9 17.2557 6.85027 23.6433
1458 4 16.9242 2.52921 23.5162
2915 4 9.73552 4.98244 23.8484
1724 4 11.882 3.52079 24.1453
824 9 15.6594 1.99956 24.4651
1941 4 12.0583 5.75549 22.8472
1259 4 14.0471 7.06246 26.6359
240 9 11.6096 7.23517 22.5563
146 9 12.6772 2.07192 24.1696
1933 4 16.8552 5.3171 23.904
1639 4 15.8052 0.428625 24.6619
2195 4 12.3032 1.30377 25.5593
527 9 9.56047 8.61906 24.3514
2410 4 10.2202 7.52942 23.3461
1664 4 12.0627 1.19854 22.9703
1075 4 17.6191 7.82059 24.9689
2724 4 15.947 7.53946 22.7862
2171 4 9.24837 8.28432 25.9578
2166 4 12.5732 8.41078 23.0369
741 9 17.7491 3.95507 23.537
563 9 12.9823 5.83014 26.6888
1294 4 13.6963 4.39912 26.4841
161 9 11.2913 1.03313 26.7938
2839 4 16.5881 0.545734 27.7158
2041 4 11.0459 6.2157 30.4066
320 9 15.6866 1.50126 28.693
656 9 9.47683 3.62122 27.6158
1872 4 16.0468 4.5988 27.7713
890 9 10.779 5.98186 28.8154
2070 4 10.5153 2.09513 30.183
2146 4 10.4751 2.49256 27.1793
1993 4 17.2044 7.48538 30.4803
1991 4 15.7879 7.94178 28.4571
1879 4 10.0126 4.58065 28.7808
2969 4 12.2536 5.9523 28.1654
684 9 10.8492 0.654622 29.5968
2762 4 9.83907 7.19743 28.3289
2948 4 16.8047 2.56486 29.2797
2158 4 14.8988 0.484875 29.7229
1280 4 14.5228 2.44389 28.0607
644 9 17.3716 5.88224 30.7417
1917 4 11.8197 0.569748 28.2898
379 9 9.72949 8.60261 27.5318
310 9 14.8026 8.33014 27.2422
398 9 16.6155 8.68191 29.6265
104 9 17.354 3.90047 28.4586
1083 4 9.42219 -0.0049985 29.0327
326 9 15.0047 3.61005 26.9907
2828 4 14.8301 5.43924 33.6204
182 9 10.0171 2.92423 31.6118
827 9 11.3356 7.83143 33.9229
2352 4 10.072 1.77772 32.7162
1730 4 11.2427 4.04192 32.0685
202 9 9.79805 1.56203 34.2743
1834 4 14.5638 0.672056 32.2474
487 9 17.199 0.541109 35.4016
643 9 11.6996 5.58796 31.7689
2173 4 11.3949 6.43344 33.1133
1345 4 14.7221 2.80458 33.9363
2814 4 13.2988 5.46619 31.4648
569 9 14.6711 5.99984 32.101
2713 4 14.5665 7.57525 32.1539
402 9 14.7754 1.17683 33.7325
2662 4 10.7763 7.59228 35.3892
651 9 15.535 4.16114 34.3392
716 9 14.2635 8.61326 33.3527
2749 4 10.9014 0.514546 34.8032
2062 4 17.1122 3.83433 34.0556
2722 4 16.2759 0.669854 34.0881
1198 4 13.6093 0.471763 34.6448
1719 4 9.71133 2.97222 35.025
2106 4 12.8602 8.34957 34.1076
1251 4 15.6179 8.55736 34.2899
1503 4 17.7891 1.99509 35.7325
1474 4 9.50558 5.30756 35.7697
2278 4 15.9817 5.33446 31.345
2679 4 12.7088 12.9511 3.19778
1376 4 15.609 12.0858 1.37021
2584 4 13.569 14.535 1.24848
482 9 12.7248 14.5243 2.62395
1296 4 15.3983 9.42064 1.01321
987 9 15.1985 10.6443 2.09948
937 9 12.4499 11.6725 2.24477
819 9 17.5796 9.63923 3.60428
2966 4 10.9472 11.0889 2.58517
1972 4 10.0401 17.1891 2.62624
75 9 10.4338 15.9847 1.5481
1931 4 13.6129 10.5718 2.49507
1589 4 16.179 10.3821 3.33909
2524 4 11.1638 14.8473 2.3609
2263 4 17.3953 15.0673 3.14517
1619 4 12.494 12.1583 0.638634
597 9 10.4068 10.7629 4.10517
1770 4 13.2982 15.4516 3.75456
2658 4 11.2996 16.7139 0.388968
2414 4 9.2922 15.0527 0.938105
747 9 13.1025 13.5446 -0.0416395
2126 4 9.10373 11.7715 4.34036
2343 4 10.0097 9.23352 4.34295
850 9 12.8686 10.9827 6.05056