ITEM: TIMESTEP
150000
ITEM: NUMBER OF ATOMS
3159
ITEM: BOX BOUNDS pp pp pp
-5.9147306606897843e-01 3.2910335583644695e+01
-5.9147306606897843e-01 3.2910335583644695e+01
-5.9147306606897843e-01 3.2910335583644695e+01
ITEM: ATOMS id type x y z
1113 10 4.99933 2.41541 0.381911
49 1 -0.344258 3.77326 0.0374126
353 1 1.36563 1.02931 1.86645
2896 4 2.09841 2.19771 2.94742
2635 4 4.29453 3.69932 1.00495
493 1 2.37181 4.52836 0.234775
1909 4 5.18369 1.34661 1.37811
2694 4 2.05924 0.408851 -0.0327176
1749 4 -0.406475 0.780263 2.09464
1839 4 1.47126 6.4859 3.00699
327 1 5.81534 1.16484 3.26221
599 2 6.92491 5.13292 1.39072
2674 4 5.86524 4.90171 2.29716
2546 4 0.815438 4.9837 0.987993
1464 4 1.53133 2.92867 -0.135677
1111 10 0.360896 5.89626 2.09592
786 2 4.54166 4.73916 1.91566
139 1 5.9623 -0.28765 0.6814
1999 4 3.53486 5.5702 2.15937
2827 4 6.98207 5.96487 0.376591
636 2 2.73829 5.74095 3.40577
2089 4 -0.0628533 7.16008 1.05267
2200 4 6.21766 2.77511 -0.437697
1720 4 0.364719 3.19558 4.56621
1535 4 2.64789 2.59813 5.51019
1855 4 6.81961 -0.554119 3.84427
2210 4 4.784 1.42208 4.84203
2997 4 0.773877 5.15565 7.56608
665 2 4.55092 7.44021 4.29331
2828 4 6.8206 3.51964 6.35608
939 10 1.82268 3.006 4.12131
1252 10 6.04548 4.48525 7.19706
1616 4 3.75671 1.07183 7.13326
2998 4 6.99141 -0.116151 6.3179
2363 4 2.63582 0.0629644 5.03017
2516 4 0.94452 7.56191 7.27962
2019 4 3.38255 6.5736 4.35869
934 10 3.49667 1.25105 5.6777
1591 4 0.0949292 0.353347 7.32509
2790 4 6.7692 5.86663 7.02423
3108 4 4.60458 4.86424 7.21634
2001 4 2.48269 4.46542 4.15168
100 1 3.28648 5.26107 5.82536
18 1 6.3732 1.69352 6.0261
2147 4 5.67453 7.08154 4.89535
104 1 7.43556 6.92903 4.21045
1614 4 4.06713 6.88139 10.097
1489 4 6.55975 0.198187 11.4868
1934 4 2.40358 6.35304 8.62273
76 1 3.5912 4.70988 9.43751
1649 4 6.41187 4.30598 8.78801
1921 4 1.10539 0.903855 9.64099
3131 4 6.54095 1.78851 8.94918
52 1 3.43483 1.77288 9.01035
2646 4 2.30606 3.5923 8.88661
1908 4 4.68148 3.15053 10.1435
1554 4 6.19746 6.96592 11.139
1006 10 0.0252859 1.28557 8.56516
741 2 3.49504 -0.421537 11.0736
1139 10 0.863669 3.96304 8.68416
582 2 0.950658 -0.102163 10.6748
1316 4 6.98682 3.31932 11.0259
1248 10 6.13907 3.04467 9.73368
601 2 5.08868 7.60184 10.6973
2851 4 3.9081 0.0491772 9.80335
488 1 5.8456 -0.16371 9.39644
1685 4 -0.00990097 4.21577 9.8431
2608 4 2.12273 -0.450191 11.2794
799 2 2.99666 7.44847 9.28793
505 2 1.34378 6.36759 7.86928
3099 4 0.274179 2.68026 7.79734
1356 4 0.0834869 7.35836 12.8064
1688 4 0.761215 2.46986 14.2842
2419 4 2.40219 4.30165 14.9502
974 10 2.98955 5.08146 13.6417
583 2 7.03407 7.43591 12.2131
2047 4 1.67602 5.81067 13.081
1337 4 2.88338 1.96881 15.5075
1478 4 -0.0992344 0.107631 13.8598
1169 10 5.69497 0.371633 12.6816
1097 10 -0.541962 1.52664 13.9892
2317 4 5.80546 1.74413 13.3377
1830 4 7.52414 4.08281 13.8563
864 2 0.422429 6.35378 13.77
28 1 5.25017 1.45333 15.1818
1192 10 1.66654 3.02498 15.4377
1572 4 4.14524 0.36958 12.2979
3112 4 6.91137 0.532617 15.624
2085 4 3.96353 6.1281 14.1034
2623 4 6.84641 5.52957 15.887
1417 4 7.24779 6.45491 13.2082
99 1 5.65609 6.57699 14.6078
1272 10 7.58736 4.25987 15.4025
2714 4 0.843298 6.92362 15.1673
113 1 7.31159 2.62975 12.8097
1420 4 3.4666 4.05911 12.6643
1082 10 2.82472 0.353947 15.917
2096 4 6.97623 2.94549 16.1088
2335 4 2.67309 -0.445252 14.6623
125 1 4.40468 2.7211 11.996
224 1 2.12339 7.55626 12.1462
518 2 7.09245 -0.58958 14.8122
2039 4 4.23055 0.259914 16.5802
2501 4 0.707768 3.09435 19.3787
553 2 7.33168 0.509477 17.0367
739 2 5.34516 3.90729 19.5253
3062 4 4.84022 5.42942 19.3518
388 1 6.16731 5.77876 17.6684
2076 4 5.99178 7.47683 19.9613
171 1 0.729975 0.6558 18.3901
659 2 6.44197 2.76092 17.3547
2244 4 1.54852 0.232721 16.7768
2196 4 4.18773 3.15145 19.7662
2352 4 6.03084 3.7656 18.1912
88 1 0.0899171 4.45082 17.6524
2005 4 6.47937 1.46403 17.8407
966 10 0.119615 6.77507 16.6182
2404 4 0.95207 3.31893 16.6398
1334 4 1.49758 -0.228847 19.9721
2057 4 1.11685 6.47547 17.7127
368 1 5.2181 0.108196 18.3262
2857 4 3.48883 7.36315 20.1465
2631 4 5.66983 7.52876 16.9906
136 1 1.92199 7.67983 18.9456
1424 4 3.86313 0.87501 20.1162
430 1 2.28614 3.76705 20.1264
1186 10 2.58156 2.48157 23.1675
1713 4 1.04813 2.53098 23.4604
247 1 2.87472 6.46537 22.1814
2308 4 6.36732 3.85464 20.5762
975 10 7.20331 3.05982 24.427
1562 4 3.01534 6.32832 24.1485
846 2 6.40016 2.87935 21.6708
1403 4 6.55482 3.60178 23.1071
2943 4 2.85544 2.47166 21.671
2807 4 -0.22277 6.98209 21.4045
1488 4 3.33347 3.91966 23.546
1103 10 0.036716 5.44254 21.5919
2344 4 7.56225 -0.397146 20.8753
381 1 6.2706 5.42673 22.8108
2257 4 5.26154 2.04037 21.72
1949 4 4.86988 6.08929 21.8142
613 2 4.09693 2.21702 20.7908
1399 4 1.53309 5.24436 21.3496
433 1 4.51343 0.525965 22.4727
2328 4 3.33972 1.4038 23.8813
2372 4 7.63793 1.99651 21.5935
1802 4 -0.520122 4.83199 22.8465
1210 10 4.68709 6.55768 20.3693
217 1 0.511451 4.02035 24.4575
916 10 2.97692 -0.426474 20.3822
138 1 6.64285 0.513434 24.6841
2957 4 5.40493 0.451501 28.3234
236 1 5.59788 3.85162 26.5881
1048 10 4.26549 1.57534 28.3249
2570 4 1.47739 2.92456 28.2012
174 1 5.82468 6.50497 26.1641
1666 4 -0.0995636 4.62845 27.8659
842 2 1.69947 1.41972 27.8037
2216 4 6.23046 2.3083 25.3112
2507 4 -0.146207 6.79209 26.6287
2136 4 4.73346 4.89289 25.4546
1204 10 3.34596 4.91041 24.839
2753 4 6.49904 4.89486 28.0531
1384 4 0.876974 1.16693 26.6279
1532 4 3.10456 1.09263 27.3335
243 1 1.86882 4.61206 27.4392
2461 4 2.17729 4.37986 25.6348
19 1 3.28395 0.512284 25.5796
3017 4 7.54809 7.09597 26.7568
2999 4 3.14577 6.03179 28.0097
639 2 0.0876215 3.20316 28.4201
2832 4 4.71157 2.93645 27.9633
725 2 -0.129541 7.74252 27.7718
3057 4 1.02354 7.50445 28.6723
3071 4 4.88984 7.73131 25.121
2545 4 1.84618 1.64239 31.2034
1617 4 7.48843 5.95373 30.1829
2123 4 4.09665 4.81731 30.8986
2470 4 4.78201 7.13483 31.45
1012 10 3.59568 6.14246 31.4164
332 1 6.68397 6.68496 31.9591
2291 4 7.12659 0.269217 31.3903
2327 4 -0.271084 3.23702 29.833
2687 4 3.67397 1.45438 29.7217
2195 4 2.58771 6.13191 32.615
565 2 2.4207 0.794586 30.1663
2678 4 1.41396 0.72681 29.0208
173 1 4.42821 4.67379 28.8588
2515 4 2.69848 6.94035 30.2501
220 1 0.0516799 1.32591 30.4652
89 1 6.24874 2.27779 31.1788
910 10 2.55518 7.25863 28.7254
1414 4 7.07464 3.43903 30.1167
1216 10 7.39776 4.5819 29.2274
245 1 -0.498369 6.86138 30.217
2743 4 3.87171 2.03992 32.6956
1235 10 2.2317 1.72456 32.7392
23 1 1.22804 7.46759 32.808
2342 4 2.77632 -0.547389 30.6551
644 2 7.25893 14.5772 1.01383
1490 4 3.99525 10.3063 0.939888
2877 4 0.611328 12.8414 -0.352468
172 1 1.78555 10.2982 2.13068
1807 4 5.94072 15.0279 1.00751
1747 4 7.42754 13.207 0.82831
2520 4 6.84672 10.9918 2.94201
2780 4 3.76427 15.4326 0.158423
350 1 2.68632 13.3962 -0.18466
1991 4 0.996158 11.8002 2.57062
897 2 -0.00729663 13.6235 0.569746
2534 4 2.90786 13.1936 1.78532
1266 10 1.70134 13.1375 2.51649
1029 10 3.13073 10.0281 -0.213295
375 1 5.41313 10.0223 2.07486
1818 4 0.179929 9.25925 2.54381
1638 4 0.649716 14.0896 1.77922
818 2 5.10276 15.7869 0.239744
1815 4 6.97866 8.74576 2.19743
1903 4 1.65623 9.87547 0.160237
539 2 7.1926 12.4474 -0.214018
2285 4 6.9726 11.0288 -0.224112
32 1 0.114316 10.9495 -0.353372
352 1 7.39577 7.8771 0.703792
2746 4 3.7687 13.3729 5.069
2049 4 5.18813 11.9073 6.14942
544 2 4.901 10.6011 6.91811
1422 4 2.23141 9.78196 4.67208
2772 4 4.30958 9.56861 6.01189
1475 4 3.52735 15.4717 4.10312
3128 4 -0.332504 9.71091 7.15193
306 1 1.06516 8.59888 4.05054
868 2 3.01715 14.2185 4.35993
2836 4 1.40337 15.196 6.81195
543 2 4.79602 12.3695 4.86889
1148 10 3.70068 9.89979 4.66004
1660 4 5.90775 12.9479 4.06982
153 1 3.25357 12.8918 7.00298
1982 4 1.02336 12.7695 7.28871
2100 4 4.26646 11.2133 4.13712
1531 4 6.19184 9.93244 7.39921
383 1 6.36425 13.1404 6.9318
115 1 -0.114136 11.3833 6.48539
1732 4 1.72898 13.842 3.95827
293 1 6.63024 8.59063 5.69664
1031 10 -0.328521 8.28588 6.65024
363 1 5.94356 15.7339 5.15518
1871 4 -0.220102 8.01998 5.11558
1481 4 7.72588 14.2347 5.86312
830 2 6.91964 12.1538 3.63193
2296 4 4.3689 8.76506 3.74378
2987 4 4.82213 14.1046 7.77718
2625 4 4.03559 10.886 8.01657
1723 4 1.99601 8.01968 10.1936
2054 4 6.71438 12.0585 8.73938
2010 4 6.47488 15.5651 9.01871
2884 4 2.36513 10.3108 9.41115
232 1 5.08701 12.4219 9.10281
2250 4 3.50698 8.52088 8.31874
337 1 1.60673 14.468 11.0216
1750 4 4.99554 8.989 10.849
1245 10 0.698912 14.1527 7.83219
2776 4 5.29295 15.6465 11.391
766 2 1.58686 9.32651 10.1039
1844 4 1.25544 14.4339 9.22315
1278 10 4.67991 14.242 11.792
2616 4 0.356873 9.64583 10.6132
991 10 7.23607 10.7365 8.19078
2198 4 5.25628 13.1126 10.8986
498 2 3.30417 9.84243 8.58966
1066 10 5.17408 15.5723 8.13705
2779 4 0.0088158 15.2111 11.751
424 1 7.17054 12.2469 10.7848
1623 4 6.72101 10.7221 11.7625
605 2 -0.332135 9.73399 11.8339
1410 4 3.23491 14.4686 11.9308
2530 4 6.19621 8.49564 12.9434
839 2 -0.334123 13.986 12.5716
625 2 3.09033 10.2677 12.9578
1380 4 4.48452 10.457 12.7895
2061 4 2.27026 11.3722 12.8186
1123 10 -0.124881 13.6882 15.3247
917 10 5.70052 9.73198 12.0357
1127 10 5.40414 14.6421 14.5357
2272 4 5.29006 13.8167 13.245
2169 4 1.84193 10.3841 15.8445
2474 4 -0.0768871 10.7153 12.7495
3098 4 6.30802 9.80838 16.0568
1504 4 2.54306 9.04325 13.1517
1319 4 7.00734 14.6068 14.6788
1381 4 4.93733 13.8131 15.689
2194 4 -0.033962 14.3325 13.9638
814 2 0.954979 11.661 12.5312
2230 4 0.581933 12.9397 12.104
190 1 2.32922 8.58752 14.8724
1966 4 0.759419 12.4751 15.4656
1309 4 -0.566804 10.5877 15.9305
1917 4 4.98597 16.0919 14.4757
1582 4 2.72365 14.8099 16.8232
51 1 4.24617 15.7016 17.6943
876 2 1.51828 10.62 18.6538
2996 4 -0.466372 8.21588 17.0832
2357 4 1.5229 10.6814 20.1066
652 2 2.91867 10.1602 16.7561
871 2 4.76825 11.2829 17.9167
2609 4 0.253666 14.855 16.329
2544 4 6.06303 11.78 17.4719
1748 4 3.70159 11.3493 16.9891
2140 4 0.848501 11.5021 17.7789
1185 10 4.23142 13.2516 19.7501
3006 4 5.12405 9.72481 18.2365
3135 4 4.36324 11.7451 19.2836
993 10 1.5694 15.7529 16.4095
1359 4 2.34868 9.64998 18.1304
1165 10 5.29597 8.97388 16.8934
3060 4 4.97087 14.1434 18.8169
710 2 6.90655 10.9743 16.7703
455 1 5.90837 13.6539 17.2432
196 1 3.66384 9.47265 19.7851
457 1 6.19304 10.3314 20.2157
672 2 0.744079 11.163 16.3385
1967 4 -0.0684198 14.018 20.1838
1707 4 7.75744 9.12407 19.8357
1632 4 7.23839 11.7768 20.2889
2980 4 2.83635 13.572 20.187
3002 4 3.8408 9.08821 16.2609
175 1 3.13524 13.1014 16.2968
1496 4 3.40671 14.8701 23.2572
1480 4 6.96948 12.9394 22.7235
2655 4 0.496803 15.4719 22.5106
2217 4 -0.259982 7.95365 23.6068
1051 10 3.94638 9.95865 22.6223
48 1 5.23109 12.3075 23.6047
3114 4 3.45065 8.48004 23.1576
325 1 1.39499 15.3446 20.7039
2074 4 4.71236 10.4914 23.7729
1697 4 5.21042 13.1819 21.1666
1346 4 4.62385 9.85912 21.2555
2593 4 0.957137 8.90943 21.6415
1460 4 2.55978 10.7557 22.3771
551 2 1.40833 10.2874 21.5369
1719 4 0.400547 11.2752 21.9937
1242 10 6.88856 13.0329 21.0777
182 1 1.01967 12.5163 20.5421
2665 4 7.12167 8.1508 21.9517
2385 4 7.5739 14.295 20.6607
535 2 0.195674 7.98322 22.3464
449 1 -0.089714 14.1948 24.0892
906 10 7.38727 7.85258 20.44
1229 10 -0.389529 11.4505 23.2985
2610 4 7.75517 8.84849 24.2692
924 10 3.46005 7.88117 24.6689
1057 10 3.13857 14.2287 24.6557
271 1 6.05224 9.30244 25.0687
3144 4 6.56763 9.39139 27.1847
1929 4 3.11191 15.4489 25.7735
58 1 0.769549 12.073 26.1365
1953 4 4.21675 13.217 24.8445
1703 4 2.11328 12.4227 27.8465
2784 4 -0.428179 11.563 27.4695
453 1 0.305792 12.9132 28.6531
1561 4 1.71501 13.75 24.8839
354 1 5.65076 14.4691 27.5015
2928 4 4.40647 13.3445 28.2489
2205 4 2.39741 8.44092 25.4573
1731 4 -0.0769543 9.15443 27.211
61 1 1.04429 15.2715 26.3085
419 1 0.466908 9.13922 25.2425
2347 4 3.204 8.6221 28.4069
3007 4 4.0527 10.9118 28.5049
1042 10 3.41918 12.3741 28.5697
1086 10 7.74295 8.43145 27.4894
2671 4 7.50525 14.68 26.8619
1961 4 0.299933 10.9071 24.5583
2052 4 7.12236 13.1786 32.0157
2565 4 3.08351 12.5336 30.2015
538 2 6.41723 10.354 32.1635
1635 4 2.46533 10.1651 30.1857
785 2 3.57205 9.74873 29.3791
1691 4 1.63718 15.1992 32.359
1495 4 3.84661 15.7241 31.2173
3081 4 6.38267 11.0855 30.9581
1888 4 3.51442 8.8592 32.4165
2738 4 3.27071 11.2963 32.1715
486 1 0.352326 13.7922 31.477
856 2 4.67849 8.59244 31.6003
873 2 2.8431 11.3411 30.8535
1314 4 4.61028 9.21352 30.2763
1304 4 0.26576 14.6541 29.5391
1710 4 6.68296 15.7732 29.0606
1819 4 5.94829 9.06605 32.3215
1918 4 7.39815 12.7437 29.428
1017 10 7.37954 12.2445 30.7623
2463 4 -0.493753 8.01785 31.768
1135 10 2.87351 16.0853 32.4502
3141 4 7.77039 8.16322 29.1617
311 1 5.79359 10.0024 28.9226
1214 10 0.656615 16.0689 29.1537
2322 4 -0.528239 12.2737 30.4158
3140 4 5.28548 19.4887 0.578591
570 2 6.00535 20.6704 1.11699
858 2 6.01473 18.1667 0.729611
1695 4 1.44884 22.2644 1.39586
1102 10 1.37904 23.6329 0.646989
1054 10 1.7958 20.7028 1.22764
2932 4 0.560985 19.7621 1.54441
2201 4 5.25225 21.8171 0.491232
1877 4 -0.0050324 24.043 0.529071
3116 4 2.22808 17.1397 2.50658
1388 4 2.19832 20.4683 -0.221447
2077 4 4.22666 23.4488 1.81209
2900 4 6.08957 17.8044 2.1261
1269 10 7.19846 17.8696 3.21885
1586 4 2.82057 20.387 2.26897
870 2 4.73954 23.0361 0.598706
2088 4 5.75198 20.7884 2.63484
70 1 1.38972 17.9362 0.892343
2606 4 5.50821 17.0876 -0.122786
2701 4 7.44282 18.3925 0.136702
2657 4 4.62875 23.845 -0.585223
3149 4 7.52754 19.3874 3.40204
3123 4 7.44957 20.6517 0.916611
688 2 6.86052 20.6285 3.39456
2066 4 -0.497897 17.2226 0.363306
184 1 4.11792 19.4072 2.99614
393 1 3.9321 21.7716 3.48294
2535 4 3.24621 19.3345 6.50818
1039 10 4.54638 20.2258 6.26996
55 1 6.31773 17.9568 6.5185
1636 4 5.33859 16.4175 6.94015
3106 4 1.35616 19.3498 5.1641
2266 4 4.83262 20.3471 4.76328
3061 4 5.61733 19.7903 7.22499
36 1 -0.0745645 21.874 4.43922
898 10 7.37729 23.146 4.31214
3121 4 1.16991 16.3987 4.66932
1525 4 1.86769 17.4884 6.67862
2346 4 6.02153 23.3803 4.81263
2219 4 4.00224 21.6521 6.77774
883 2 2.4221 18.4622 5.72557
1419 4 2.29916 22.2437 4.93192
1014 10 2.80682 22.5719 6.29573
573 2 0.94459 16.5614 6.1683
1892 4 6.54795 17.2948 4.45593
2672 4 3.31166 17.8135 4.69493
1052 10 2.53596 16.7085 3.88848
1706 4 3.18026 23.9868 6.51223
2873 4 -0.27796 20.2143 3.75032
334 1 5.27539 24.2427 6.14103
642 2 0.0663956 19.4143 4.79626
1627 4 -0.372637 16.7566 6.54479
1477 4 1.80575 22.1824 7.47937
2498 4 7.63329 21.7191 3.76679
1205 10 0.347697 21.5248 7.67476
1990 4 -0.517056 21.8697 6.49337
2972 4 1.1651 17.6042 9.33993
1740 4 1.89263 23.8457 11.8052
1323 4 6.22506 21.2765 9.90044
2898 4 -0.157734 22.2283 8.98592
958 10 3.02589 18.7308 11.2515
2477 4 3.60276 17.2674 11.1896
886 2 6.84787 16.7626 9.71886
2993 4 5.82032 17.5638 10.1488
2430 4 3.24823 22.4766 10.0521
496 2 4.72646 16.7158 10.5359
1041 10 3.05884 22.8992 11.4127
215 1 4.86078 22.1579 9.02888
1699 4 5.5098 23.6842 8.20177
2785 4 0.449848 20.0336 7.98507
1571 4 3.34199 19.4804 9.93019
24 1 2.17934 16.3943 8.34648
656 2 0.717794 17.8754 10.5645
459 1 5.41285 19.2462 9.0876
156 1 1.95869 19.0236 8.44847
1850 4 1.47836 18.4938 11.5387
1213 10 7.66966 20.9289 9.94965
280 1 -0.343598 18.3785 8.26845
2879 4 4.10928 16.1799 9.11053
2902 4 4.3083 23.6927 11.8886
1366 4 4.46012 18.9895 15.9076
1184 10 4.16649 20.4524 15.755
373 1 3.63528 17.4634 14.899
918 10 5.62565 22.1238 14.1355
2260 4 5.11203 21.149 13.0014
791 2 3.61312 20.7831 13.0673
2309 4 3.5133 19.4291 12.535
2991 4 5.54793 21.1442 15.4644
2364 4 7.05071 22.4521 13.9895
1842 4 4.55629 23.2895 14.3628
2697 4 3.27582 20.7182 14.5251
2439 4 1.07057 23.2511 15.7109
1563 4 1.91989 16.7423 15.321
1837 4 2.72815 21.8093 12.5253
151 1 2.39508 22.7722 14.5911
881 2 4.38773 24.3439 13.2767
206 1 3.99151 21.064 18.8228
2686 4 1.66653 17.203 20.0295
1072 10 7.49255 17.0033 17.4035
2097 4 5.5597 19.858 19.0658
2982 4 6.00342 16.6825 17.4387
2577 4 1.30336 18.9089 18.3013
1023 10 0.488867 23.4359 17.0732
1159 10 0.949002 21.7222 19.4136
118 1 6.55835 20.9328 17.4512
2782 4 3.6895 21.17 16.9945
1368 4 3.3705 17.4466 18.1937
653 2 -0.215365 19.3831 18.4431
2033 4 2.31489 21.2457 19.7931
345 1 4.94682 18.2361 17.6292
1179 10 1.90595 17.5177 18.5945
2852 4 0.345315 22.9558 20.2208
1349 4 0.969127 22.2645 17.9362
1869 4 1.03116 16.5552 17.7154
2821 4 5.59059 23.3794 19.735
2325 4 -0.171923 20.6938 19.4708
921 10 6.24905 19.2516 20.3024
1671 4 7.71856 18.5402 17.2056
2881 4 7.6978 19.1966 20.2956
852 2 6.26619 20.9699 22.4115
2114 4 5.69727 17.7519 20.4226
550 2 7.72997 16.8346 22.8252
2398 4 0.978888 22.4741 22.6677
1853 4 3.33883 22.5774 22.941
1415 4 7.51543 20.5911 22.9614
552 2 3.54651 16.3608 23.1282
925 10 3.6187 21.1302 23.4444
774 2 -0.0304439 23.1742 21.6957
331 1 2.76544 18.2613 21.7348
3039 4 2.86939 20.0238 22.6593
2748 4 5.66269 19.9297 21.5361
2129 4 -0.0274407 17.9524 22.8163
2765 4 5.184 20.8942 23.5775
2888 4 2.22591 17.0672 23.1734
705 2 2.0317 23.2178 23.3377
824 2 5.50511 17.0339 21.5822
1120 10 0.72214 16.7157 23.3641
2048 4 6.51559 16.4859 22.2713
1780 4 6.3294 22.1835 21.6549
12 1 1.29188 20.6656 22.1177
2044 4 4.13858 16.8224 21.8576
2119 4 7.7006 17.7076 23.8739
694 2 6.6502 23.0185 20.6164
1828 4 6.37598 23.7966 24.3017
2192 4 4.33967 16.9631 24.1831
1607 4 -0.158457 19.7429 24.5086
1499 4 6.51616 18.0561 28.2292
1084 10 7.16794 23.5977 25.7074
506 2 2.18336 22.0316 25.5399
2557 4 0.543444 16.5645 27.7699
1114 10 6.64819 19.6635 27.994
2220 4 6.222 23.5063 26.8987
967 10 2.80826 21.6204 28.3357
2964 4 2.73849 22.5645 27.0095
231 1 0.953896 23.5503 28.4849
2824 4 3.31969 18.0308 26.2264
160 1 3.9052 19.9112 26.3901
250 1 2.0791 18.4487 27.7612
1177 10 -0.324645 20.729 25.6697
2017 4 5.93819 20.058 26.7121
3103 4 1.04832 21.3444 26.0573
237 1 4.44006 23.9875 27.1009
2093 4 2.98021 20.1788 27.8749
2889 4 5.30248 16.3648 26.3856
899 10 4.0554 16.8119 25.7276
268 1 6.78667 20.5942 24.9372
2716 4 3.19462 21.133 24.9578
2680 4 1.8174 23.1655 24.786
146 1 7.13844 16.5835 26.7174
2483 4 0.373453 16.612 24.8321
15 1 -0.360948 16.3335 32.2394
141 1 6.0557 23.8905 31.6712
1993 4 4.40216 16.9621 29.2059
2720 4 1.13124 18.9873 29.5205
751 2 3.34934 24.0777 32.3757
938 10 5.97945 17.0133 29.4803
1453 4 3.98764 20.5855 31.0501
1312 4 -0.267826 17.0364 30.1535
150 1 1.89752 20.5092 30.4507
1065 10 5.0308 21.1996 30.0903
2510 4 7.66368 23.4716 32.4882
2144 4 6.03919 22.0676 30.7785
2596 4 4.26945 22.0552 28.9433
620 2 3.42065 16.3045 29.9931
1609 4 2.11604 16.2922 29.6404
2770 4 6.31457 17.5385 30.8114
93 1 3.86408 19.5993 32.7867
107 1 6.71855 23.4084 28.8687
1166 10 -0.203168 18.6589 30.0342
1604 4 1.77398 22.0157 29.3126
2008 4 5.76058 20.0567 29.2452
167 1 7.36815 17.2317 32.2068
2733 4 2.18218 23.3827 32.7855
2961 4 2.56281 17.5504 32.7131
2391 4 3.13262 29.536 0.0894873
603 2 5.75663 26.4099 2.13337
2792 4 -0.298882 29.9979 3.02273
2841 4 5.90639 27.7391 1.42729
2634 4 1.73853 28.9095 1.83617
1943 4 6.83808 30.5127 3.26086
728 2 0.314538 31.0796 0.188839
2422 4 4.33349 26.0142 1.79391
1715 4 1.43125 31.1012 0.947533
81 1 4.01385 28.2915 2.07024
676 2 2.42367 30.1245 1.2314
1442 4 3.48793 30.5757 2.08882
2916 4 6.69768 25.4103 1.60666
566 2 6.84109 28.1329 0.521214
911 10 0.557544 28.6542 2.801
662 2 3.42183 31.3019 3.29438
3122 4 -0.334304 27.6229 2.05711
1146 10 3.45712 24.8792 2.27667
2759 4 2.1743 24.8173 1.24892
779 2 7.72005 24.703 2.00605
1443 4 5.97016 26.5292 3.58043
584 2 0.378532 32.34 6.99046
2367 4 6.28037 31.2608 5.66185
2493 4 0.118254 24.9242 5.69854
2159 4 0.792672 32.2058 5.64848
534 2 6.49485 32.1527 6.6657
2175 4 6.45724 28.101 5.51381
2071 4 1.65742 29.4759 6.92673
370 1 0.138597 31.7418 3.95971
2568 4 0.981063 28.2806 4.18848
1507 4 4.80965 26.2576 5.92863
663 2 2.21465 30.7578 7.433
358 1 2.87575 25.6429 5.3452
1559 4 1.95718 26.9222 6.80614
1782 4 2.91978 31.4952 6.35876
1624 4 4.6183 31.7972 3.73461
1231 10 6.12834 31.5463 4.07753
765 2 2.1768 32.1849 5.43261
435 1 2.53383 29.0658 4.99963
970 10 5.34094 27.3297 4.87383
170 1 1.25748 25.0986 7.22421
2685 4 4.16345 28.3054 4.49354
2371 4 2.34381 31.3726 4.05213
216 1 3.8524 26.3407 7.58418
47 1 6.78086 28.5905 7.29639
299 1 0.000502353 27.1622 5.49059
1429 4 2.99026 24.9752 3.66469
483 1 3.59834 32.671 8.06714
1400 4 2.56944 26.2797 11.5003
2970 4 5.92523 31.1154 10.0754
1243 10 4.91435 30.4421 11.0091
608 2 4.03018 29.5298 8.76915
3145 4 5.00359 25.9996 9.06877
3019 4 4.23427 29.229 10.2899
2131 4 0.257292 24.7686 8.90321
1351 4 3.40656 28.1764 8.29053
2663 4 3.15296 30.5936 8.49773
2874 4 1.0516 27.9315 8.9967
763 2 6.24482 30.7664 8.65105
1998 4 7.32048 25.3671 8.13959
1926 4 5.42244 29.6318 8.3049
1863 4 3.90463 31.5243 11.5016
410 1 0.73423 26.6715 10.5545
1916 4 7.71552 30.4343 8.45556
1236 10 6.01346 24.8995 8.91583
263 1 3.99455 27.0898 10.5599
166 1 -0.15512 31.3812 9.36409
2428 4 -0.221166 32.7485 10.8521
1613 4 6.69681 24.6033 10.3246
2494 4 5.94142 32.0207 7.9148
1258 10 1.92151 28.1003 7.78974
2880 4 1.14904 31.6443 7.97764
1344 4 -0.569511 29.8958 10.2348
622 2 7.43288 28.3463 14.8191
1259 10 3.34404 29.6076 14.7415
1823 4 6.35195 28.8644 14.1333
372 1 6.1759 30.8184 14.2265
1970 4 5.89889 32.7234 13.7899
2486 4 1.98528 30.1746 14.2369
2396 4 0.106806 28.5247 14.7069
1034 10 2.00902 25.3463 12.5363
607 2 0.553731 29.8515 14.0816
2402 4 4.27505 30.7573 14.9196
1538 4 5.50926 25.3351 13.4287
650 2 5.25882 28.7008 13.1087
2977 4 7.01372 31.6369 15.5138
1681 4 3.94779 28.6535 13.6678
1372 4 3.0886 28.8883 16.1109
1543 4 3.04247 24.9563 13.6585
2899 4 0.342838 29.8936 12.5482
1811 4 -0.194826 30.8984 14.6884
2636 4 0.646957 25.6819 13.0997
2934 4 5.63757 29.8261 12.163
155 1 3.8247 32.1441 13.416
497 2 5.9421 26.3395 12.6884
3095 4 5.26519 27.5067 12.3484
474 1 0.0946762 25.0421 14.9158
380 1 0.854857 32.3289 15.0371
1354 4 7.2981 26.4039 12.0999
1101 10 5.69847 24.8649 19.0856
1883 4 5.1675 28.3421 17.2366
961 10 1.8558 28.8616 19.2483
2722 4 4.56573 24.8679 18.1635
330 1 0.541722 31.6345 19.9109
634 2 3.62698 30.7037 19.179
1289 10 6.6321 28.8953 17.4443
2063 4 3.06159 28.2099 18.4163
1775 4 4.58891 30.0642 20.0808
1816 4 3.88182 30.4088 17.7981
687 2 3.87721 29.0274 17.3342
2976 4 0.432165 28.5217 18.881
144 1 4.91561 31.4194 16.6456
291 1 0.190557 25.0153 19.5806
2084 4 6.56766 30.4549 17.5213
286 1 2.78233 25.473 18.2871
2911 4 3.7126 32.1643 19.3104
3157 4 2.03032 25.8699 20.0752
1646 4 2.19737 30.3673 19.5456
645 2 7.35389 31.6352 16.9453
1779 4 6.93927 32.7623 17.6264
1421 4 0.908478 24.7165 17.8039
2125 4 5.82633 25.9343 20.1784
2135 4 7.42236 28.3991 18.6071
256 1 7.11956 27.464 20.246
3024 4 7.14885 24.8416 18.3469
3091 4 7.47133 28.4307 16.185
1927 4 2.15188 28.1872 20.7043
2583 4 5.92096 28.5671 21.5789
1237 10 5.73265 25.2312 24.0535
191 1 5.29001 26.6297 21.7766
695 2 3.28502 25.5861 23.3032
3020 4 6.64836 26.0858 23.2345
546 2 0.601301 25.3129 22.7006
319 1 7.07432 27.8915 23.1074
1116 10 7.17554 32.1593 22.0297
1675 4 0.787041 26.6524 22.129
2820 4 4.37655 30.2924 22.6043
69 1 2.68478 30.7296 22.5952
1759 4 1.21905 30.4233 23.7056
1070 10 -0.0906585 30.514 22.8984
2290 4 3.29564 26.7048 22.292
1156 10 5.28114 29.9295 21.4481
1944 4 6.56885 30.9033 21.2339
1287 10 2.10483 26.7446 21.2818
265 1 5.06441 31.7543 23.9733
3014 4 0.0902554 30.4804 21.3903
2113 4 2.08549 24.7014 22.8674
1977 4 0.237581 25.4562 24.0944
3126 4 4.55136 24.8951 23.1665
2343 4 3.11188 32.6312 21.7931
1560 4 6.12317 32.7766 22.9647
1408 4 7.59595 29.0976 24.4875
2781 4 -0.17897 24.5578 21.8532
673 2 3.94364 26.4125 25.6831
1684 4 -0.301771 25.3484 26.4166
834 2 3.05799 28.5101 26.5101
1357 4 3.4805 25.6644 26.9558
1611 4 6.76108 28.6862 26.9044
3010 4 5.37737 25.7994 25.4722
2598 4 5.71047 31.7034 27.7375
948 10 2.17967 30.5038 27.8988
753 2 5.40138 31.7274 26.3612
1333 4 6.20889 30.8293 25.599
1389 4 1.4981 31.4515 26.9279
2333 4 4.0405 27.795 25.8905
1770 4 -0.173816 27.4882 27.8399
3125 4 1.71652 28.1396 26.4166
817 2 3.18627 26.1091 28.3897
1938 4 3.36684 29.7134 27.1934
730 2 1.24846 28.0104 27.7846
50 1 1.89125 24.9347 25.7527
244 1 0.909452 29.932 25.5413
2166 4 2.18214 27.1768 28.5189
1117 10 7.26902 29.6552 25.8326
458 1 6.72401 26.875 26.6321
428 1 6.03471 28.6891 28.6351
1735 4 4.54468 32.4685 25.655
439 1 -0.178619 31.8439 27.8367
2340 4 3.06044 26.0236 24.6173
1511 4 1.25047 29.3783 28.4568
658 2 5.57933 32.5781 28.711
720 2 2.29958 31.6768 30.3647
2180 4 4.49785 26.6428 28.9365
561 2 -0.345505 25.3849 30.2387
1136 10 2.96526 29.3348 32.0261
1615 4 6.56544 29.0573 30.5136
589 2 5.78021 28.2915 31.5171
946 10 6.30767 32.5262 31.4181
2156 4 2.79865 30.8232 31.4362
2564 4 1.83125 28.4309 31.6821
2601 4 5.7633 26.9116 31.1655
1068 10 5.75301 26.1642 29.7662
249 1 3.42235 32.8043 32.5113
2223 4 2.88813 31.2034 29.0494
480 1 0.829065 27.7341 30.2995
2971 4 0.974908 25.4381 30.7784
1071 10 -0.427128 31.8523 30.946
2750 4 0.110495 31.7135 32.4884
2967 4 0.740722 31.4805 30.0469
1340 4 5.30073 32.5189 32.601
2409 4 4.3303 28.7699 31.5053
843 2 7.36971 29.9432 31.2444
1360 4 2.64053 24.8775 29.1479
2587 4 5.63937 32.1831 30.0079
2985 4 5.79408 24.7383 30.0093
1701 4 7.12019 31.1861 31.6721
1737 4 7.00055 26.7676 28.9092
558 2 2.26007 25.171 30.4631
2370 4 -0.290713 25.1993 28.7717
2320 4 6.44639 28.5891 32.7933
3094 4 3.26868 25.0838 31.4602
98 1 8.0645 3.36836 -0.099408
2853 4 12.5006 2.52634 1.07266
1091 10 9.09189 4.38149 2.7694
844 2 10.9934 0.202494 2.94995
2206 4 10.1675 -0.190021 1.75635
1073 10 8.86491 0.531917 1.16809
1268 10 13.1685 1.25441 1.57788
1567 4 8.32698 1.35327 2.4581
2332 4 10.3825 4.25972 2.03861
1905 4 14.4872 1.42659 2.29971
469 1 14.3262 3.87537 2.24808
1743 4 12.3988 0.404144 2.5763
1654 4 9.06925 1.51031 0.0823807
2379 4 13.5068 5.12331 0.978542
27 1 12.0351 5.29424 2.43743
468 1 10.5253 3.01904 0.682909
2543 4 13.3139 0.228066 0.32676
2112 4 11.8252 7.06389 2.52553
95 1 13.899 7.12625 1.0139
1922 4 7.99197 4.23061 1.66416
2270 4 8.88988 5.67238 3.53804
2935 4 7.82259 -0.56354 0.926096
1555 4 10.434 1.41728 3.59024
177 1 14.0713 -0.0532221 3.54726
1298 10 13.6982 5.1061 -0.517662
1603 4 14.4879 0.733455 5.48406
567 2 14.3205 2.06674 5.72051
213 1 16.0383 6.02705 4.67536
3153 4 8.31795 7.467 6.13267
338 1 8.97672 3.58367 5.94244
2460 4 11.2818 7.71737 4.92938
1608 4 8.76923 3.22723 3.79535
382 1 10.9326 4.50572 7.49509
403 1 10.221 5.96411 4.98291
2078 4 15.3024 2.97225 5.89079
1200 10 12.8701 4.08866 5.21992
3136 4 11.4362 4.4672 5.4249
1798 4 13.0077 2.51575 5.49926
519 2 15.124 -0.197013 6.44869
660 2 15.0417 4.11861 6.81743
1181 10 16.1418 6.58049 7.21732
1508 4 13.7969 4.79648 6.31524
1275 10 8.33769 6.33971 7.16219
1766 4 9.36269 5.31688 6.65085
809 2 8.99988 1.6894 3.65314
1760 4 8.20884 1.26459 4.85265
2476 4 15.4272 7.48071 6.29286
240 1 11.0114 1.08635 7.33209
1626 4 13.3062 4.42057 3.81827
832 2 7.83797 -0.0942468 5.06272
1154 10 13.6031 0.177935 8.67738
427 1 8.16093 0.507031 10.3122
122 1 10.5733 -0.503757 9.70995
769 2 14.9859 2.62116 9.0136
542 2 9.97893 1.54189 11.6388
1557 4 15.6952 6.60337 8.6548
109 1 9.18049 5.47697 9.82116
600 2 9.71473 2.56809 9.22312
941 10 11.8907 6.3727 9.48552
1466 4 15.0324 3.72717 8.16385
2863 4 10.7907 6.17029 10.5511
2602 4 8.9598 3.60932 9.78999
1459 4 14.5382 3.22717 10.3738
637 2 8.43505 3.60692 11.1387
2466 4 8.59559 4.8961 11.7661
2388 4 12.2339 5.04213 8.78067
3033 4 12.1261 -0.0790215 8.62486
285 1 15.7825 0.642151 10.7373
2399 4 10.0057 1.48812 10.0907
2062 4 13.8217 1.70491 8.47252
615 2 15.2106 3.01252 11.5851
2433 4 8.51901 6.73571 8.61528
3085 4 13.2969 6.59985 10.4433
446 1 14.2625 5.07751 9.50697
1678 4 10.193 2.67088 7.9771
2737 4 14.4009 -0.355311 9.93816
1979 4 11.7462 7.50974 8.5101
1962 4 12.2177 4.63405 12.9566
1879 4 12.9088 0.786785 13.4308
819 2 9.90883 5.41166 15.1622
2384 4 15.4111 4.24541 12.4595
287 1 14.5002 5.67444 13.7658
2940 4 11.3426 4.99311 15.3611
3117 4 9.72331 6.71971 15.8974
2839 4 9.49735 5.56808 13.78
643 2 11.5559 1.5545 13.4912
1785 4 13.7564 7.28273 12.9901
982 10 12.2704 4.16083 14.3386
2800 4 8.24122 -0.478137 13.9429
482 1 9.99138 1.70905 16.0009
3045 4 11.7237 2.64215 14.5228
3075 4 11.2359 1.83227 12.1443
1064 10 13.7023 -0.304034 14.2188
803 2 8.19223 5.36837 13.1483
289 1 15.0292 3.07562 15.2088
2806 4 13.6339 4.31522 14.9311
1768 4 10.5329 0.751871 14.2068
2267 4 15.0591 0.29236 14.5338
1915 4 9.06497 4.25799 15.8661
980 10 9.72364 -0.462176 13.4993
132 1 10.4996 5.05724 12.2485
1667 4 16.1549 6.35754 14.8045
2875 4 14.2276 7.00265 16.1541
988 10 15.7126 7.08152 16.1527
2301 4 15.8685 1.92813 11.9755
2185 4 9.0139 2.53791 11.9759
1550 4 9.65564 0.124407 12.0394
2936 4 13.971 4.23528 18.3543
1021 10 11.9324 2.08212 19.0374
2620 4 10.6125 1.73001 18.1864
3088 4 13.2421 5.51736 20.2522
209 1 13.2198 5.51889 16.6205
2069 4 12.5252 7.6628 19.2752
671 2 9.50759 0.726754 18.3969
2255 4 10.3098 6.77072 19.1657
1015 10 8.98592 5.97474 19.2691
689 2 11.4989 6.88411 18.386
575 2 12.7504 4.73343 19.0584
2786 4 9.20187 4.51185 19.4262
1439 4 8.73303 1.1813 19.5887
259 1 8.24552 3.1562 20.2345
3087 4 15.2336 2.47893 17.0441
1160 10 14.4645 2.74367 18.3249
1809 4 13.1057 1.91032 17.9369
2312 4 15.0728 2.26141 19.6257
2090 4 8.71374 0.785732 17.1685
2269 4 12.1019 5.57952 18.1184
1896 4 11.9156 3.54319 19.5622
504 2 13.376 6.89322 20.0412
56 1 7.84689 7.16425 16.6487
2324 4 7.97888 6.43428 18.2359
2921 4 12.1583 1.05212 20.1269
321 1 16.0687 0.734807 16.3431
2130 4 11.479 7.76043 17.2112
123 1 13.2865 6.74898 23.0367
638 2 15.9621 5.82106 23.5756
2522 4 9.37558 0.798478 21.999
2128 4 14.4162 7.62745 20.6587
554 2 8.40369 0.833163 20.8673
2560 4 11.5348 2.47582 23.5918
2692 4 15.0169 6.24107 22.4662
1392 4 13.6479 1.40391 22.8907
1820 4 11.0964 4.81384 23.7411
1773 4 9.55728 3.29486 22.7004
2804 4 13.6827 3.50475 24.2898
820 2 8.78405 2.05692 22.6581
628 2 15.4354 7.03901 21.435
1195 10 13.0104 2.0893 24.0535
2860 4 8.24612 1.86799 23.9249
592 2 10.7166 3.51787 23.4071
460 1 13.8922 1.09981 21.1203
1435 4 8.28824 6.58092 20.6627
437 1 14.5598 -0.107281 23.6453
1597 4 15.6367 4.78076 24.4097
2767 4 7.87293 6.41265 23.5533
1952 4 16.0789 7.14766 24.4213
397 1 10.9519 -0.354431 20.5966
159 1 8.45295 6.04111 25.483
1729 4 12.7426 6.37684 24.8612