ITEM: TIMESTEP
150000
ITEM: NUMBER OF ATOMS
3000
ITEM: BOX BOUNDS pp pp pp
-5.7090697638560783e-02 3.3796200159528240e+01
-5.7090697638560783e-02 3.3796200159528240e+01
-5.7090697638560783e-02 3.3796200159528240e+01
ITEM: ATOMS id type x y z
2315 4 3.04827 7.53253 1.7103
83 2 1.82277 7.0524 2.11076
548 2 4.18981 6.72543 1.61719
243 2 0.385171 1.0539 0.791361
1288 4 0.679448 7.73715 1.578
750 2 2.40625 2.50941 3.81863
567 2 4.23563 0.874713 3.0675
2902 4 1.34533 2.09113 0.743701
1969 4 1.84437 5.02151 0.531775
696 2 4.87189 1.00862 0.853717
2090 4 1.60059 6.08121 3.00304
1668 4 5.4308 7.32846 1.90248
1617 4 1.9987 3.83195 3.55237
1026 2 2.30602 5.12932 3.68582
2779 4 7.48511 6.09845 1.35918
92 2 6.60679 7.11377 1.12562
1749 4 3.66189 2.09908 3.37449
864 2 3.08158 4.61397 0.841996
2273 4 5.25997 0.69154 2.11518
2584 4 3.49047 0.954589 0.576475
1553 4 4.11629 5.4393 1.17419
1102 2 2.70951 2.19792 0.61987
732 2 8.29614 5.36629 0.624055
1659 4 3.44409 3.28211 0.695783
1944 4 6.83852 8.06434 0.165126
173 2 3.91912 1.14964 7.27545
360 2 3.55439 6.48889 5.30945
1463 4 2.76151 6.61369 6.50804
2956 4 6.78623 3.14677 8.39337
2214 4 4.40091 7.44873 4.99032
2230 4 7.90901 2.70949 6.43239
865 2 1.7486 5.8214 6.95659
1404 4 5.90395 7.67284 6.82941
1031 2 6.75053 6.65368 7.18073
1220 4 0.891134 6.40885 7.90502
1777 4 1.49911 4.6432 6.4963
704 2 0.250177 1.52687 4.21414
2252 4 2.72248 1.72916 7.49602
233 2 0.625234 3.81012 7.14491
2291 4 8.03207 4.23382 4.52742
164 2 8.00318 3.0349 5.13074
271 2 7.74046 5.47989 5.10267
2675 4 6.96893 5.58033 6.25007
524 2 7.92725 3.08568 7.72087
1293 4 3.41224 5.48332 4.3826
1821 4 5.16115 1.64156 7.59762
246 2 5.54132 2.86675 8.15981
68 2 5.41879 8.12647 5.68422
1789 4 1.58278 1.61057 4.51428
1759 4 1.10053 3.28985 8.32991
2463 4 4.49796 3.67641 8.40522
1289 4 8.33633 6.60712 4.52511
1694 4 3.87299 -0.00537924 6.56159
1701 4 8.06842 1.91096 4.33981
1600 4 1.22189 5.48615 12.6008
1394 4 5.9801 3.14747 12.5836
2853 4 2.66518 2.34008 9.83035
413 2 5.13554 3.05307 11.45
1300 4 4.02032 6.99221 11.2339
1509 4 4.61227 1.82968 11.1274
181 2 4.37254 4.48057 9.59556
1160 2 1.0692 7.1496 9.00595
371 2 3.50451 1.39496 10.3859
2808 4 4.97946 4.22996 10.7524
2109 4 3.58607 5.55085 9.394
223 2 3.34472 6.7095 10.0923
578 2 2.172 2.40437 8.55873
1362 4 2.20244 7.48548 9.74138
1112 2 4.51689 8.28988 11.4157
102 2 8.39748 6.16846 9.01915
1298 4 7.13799 6.56508 8.50907
1375 4 3.40758 0.100505 10.0226
566 2 3.11142 0.774598 16.3893
1457 4 2.66669 1.23128 13.4142
2339 4 0.0224653 0.889838 15.6022
362 2 0.667592 1.68145 16.4361
137 2 3.69747 7.91647 16.2606
470 2 1.86722 2.31659 13.4266
2280 4 0.445474 2.24531 13.6218
581 2 2.05535 4.91096 13.4919
981 2 6.28962 2.53859 13.7709
1520 4 7.29186 3.11203 14.4935
1900 4 3.58992 7.72223 14.9493
103 2 2.59534 7.00806 14.3174
1016 2 7.39457 3.35374 15.8514
1452 4 2.37453 3.63416 13.3983
1860 4 1.63398 7.65421 13.5668
2843 4 7.5664 4.68531 16.1128
1336 4 2.72471 5.6424 14.426
1267 4 5.74623 1.31389 14.0875
536 2 2.9395 0.0402357 13.9729
970 2 6.23395 0.201224 14.7737
2847 4 2.0536 1.67254 16.6268
1647 4 6.94011 0.183028 15.9114
2620 4 7.36681 2.36953 16.7794
64 2 0.877153 6.84368 12.6976
2471 4 6.68488 6.5426 17.3096
712 2 2.18439 8.00281 18.2951
2711 4 7.86951 4.78389 18.4538
2205 4 1.34733 5.1696 18.6375
1100 2 7.07844 4.05359 19.2939
490 2 2.22516 4.69129 19.6225
2922 4 5.15883 0.310955 19.2796
1048 2 5.6516 7.21633 17.8448
73 2 7.32703 5.33203 17.2892
1670 4 4.44292 3.33237 21.0178
1530 4 5.72676 3.73596 19.0189
1895 4 3.52811 4.5516 19.1762
2749 4 1.41403 0.0447029 19.2852
2219 4 1.93314 2.01943 20.3996
442 2 0.112607 5.32118 18.299
110 2 4.16854 7.26949 19.8944
1119 2 0.990097 1.24646 19.6748
1204 4 4.16918 0.913332 17.2649
2474 4 5.37221 7.11948 19.1671
609 2 4.57834 3.8526 19.7837
1206 4 1.67647 4.30679 20.8875
1384 4 -0.044055 2.60923 17.1041
1601 4 7.69009 3.46262 20.3866
885 2 8.03816 0.512679 19.3523
2790 4 3.05684 7.71468 19.3542
1567 4 7.99539 0.374318 17.9998
2216 4 4.91327 8.01812 16.888
1905 4 2.50811 7.89389 16.9389
262 2 7.40899 0.995568 16.8816
2319 4 3.91471 1.8211 24.7388
1708 4 0.687662 7.93683 22.2326
2061 4 1.9268 6.60307 23.8752
284 2 6.3574 4.84096 23.0014
2499 4 4.72467 1.57748 22.4718
648 2 4.35281 1.04971 23.6445
2789 4 5.80274 7.86104 22.9063
1554 4 5.97233 5.69501 21.9317
1710 4 1.23897 2.62248 22.579
2043 4 7.18783 5.27277 24.0198
1427 4 5.69401 3.65369 23.1197
158 2 4.96362 2.92039 22.1937
294 2 5.36095 6.96817 22.0054
384 2 0.887794 7.46422 23.5174
1034 2 1.655 2.96265 21.3393
1349 4 4.28493 7.13746 21.1877
2781 4 7.59683 0.14149 24.855
657 2 0.131035 2.47673 23.259
1151 2 2.11992 6.04239 25.1433
1989 4 -0.0446231 1.44179 24.0778
839 2 8.31407 6.00649 24.0211
2658 4 4.97463 4.60458 26.7997
945 2 0.0542454 7.22076 25.8993
724 2 7.57725 5.8523 28.9282
1247 4 2.80395 4.792 27.8442
1377 4 5.83465 1.24489 26.048
736 2 5.63955 4.91518 27.9886
2593 4 4.89374 4.98249 29.1384
1810 4 3.61278 1.66758 27.0497
346 2 4.51064 1.61736 26.0081
699 2 3.38527 1.57409 28.3987
2420 4 0.168995 7.3697 29.0237
31 2 3.5494 4.86667 26.6831
2325 4 5.04218 7.94077 28.764
1392 4 1.16267 6.33448 26.0968
2921 4 2.12166 1.22831 28.7068
1872 4 6.94608 5.11877 27.962
512 2 6.41673 7.97718 28.8761
18 2 6.505 0.142572 25.6072
465 2 3.53372 4.88875 29.0936
2408 4 4.4001 1.65425 29.2824
2521 4 7.1394 6.97765 29.4703
1354 4 3.1242 5.14862 25.3874
1987 4 4.92976 8.00003 32.6733
2720 4 1.59125 1.8687 30.9021
272 2 2.50615 6.26446 30.7679
1747 4 7.81393 4.59049 33.4176
1183 2 7.72657 2.80421 30.1847
2816 4 3.42274 6.99447 31.3836
2663 4 7.55437 3.35155 31.4141
614 2 0.502731 7.6655 30.3044
2659 4 1.17152 6.56684 30.8504
1857 4 1.47227 3.64197 32.4564
25 2 0.9788 4.498 33.4302
448 2 5.45944 1.73363 30.1234
2122 4 5.26489 1.5258 31.4432
706 2 4.04123 8.16803 31.6616
1763 4 0.187235 0.325003 29.7007
1137 2 0.902576 3.00086 31.3736
1168 2 6.09743 1.08157 32.4257
2021 4 7.1318 0.20917 32.1822
2487 4 2.72297 5.07087 30.1824
1981 4 5.87932 1.30237 33.7782
1176 2 1.29593 1.11222 29.8004
192 2 8.37917 3.95206 32.3578
2543 4 6.62788 2.13442 29.592
1950 4 3.69373 11.2325 0.859315
167 2 5.59156 11.2571 3.31695
2326 4 5.79855 11.0072 1.9821
2857 4 6.30987 15.6769 3.97906
2459 4 1.4986 14.0076 1.05927
439 2 1.92737 14.3987 2.35131
1599 4 3.08214 15.0775 2.62862
1051 2 2.45315 11.1103 1.46653
2401 4 1.43596 11.0455 0.576039
770 2 7.30706 13.7182 0.978405
1094 2 0.112967 8.59289 0.614789
546 2 7.06537 15.4054 2.84398
404 2 3.48488 16.3634 2.88473
1043 2 5.02259 10.8131 0.863964
275 2 0.229772 13.6563 0.572276
2388 4 2.24186 10.9245 2.80571
1178 2 3.00564 11.1055 3.91342
1892 4 6.68786 14.4259 2.02609
2772 4 1.18643 13.9846 3.37817
2883 4 8.19798 16.1127 2.70217
2859 4 4.33258 11.5356 3.80448
1940 4 4.18187 16.701 4.01975
2880 4 8.35992 16.0789 0.377582
791 2 7.94236 12.0445 4.1646
1279 4 5.95582 11.1337 6.65143
1458 4 2.07261 13.7622 5.76446
822 2 1.57602 10.1437 5.81038
789 2 1.74065 13.7083 7.14502
2197 4 3.88358 16.412 7.6664
1252 4 3.951 10.1023 7.52085
1150 2 2.68392 10.2851 7.9348
2178 4 5.80873 9.27709 5.0828
1359 4 1.57641 10.1764 7.18837
1841 4 7.96094 10.209 5.85334
658 2 6.5165 10.385 5.62152
1868 4 2.64187 13.2936 8.02227
677 2 1.06275 14.0216 4.79308
2433 4 0.448413 14.0425 7.55602
2058 4 2.52361 10.8431 5.14371
1862 4 0.653171 9.3856 5.11902
280 2 4.89081 11.1474 7.45023
1109 2 5.55071 16.7759 4.20871
2527 4 6.00482 15.3993 7.93642
2832 4 6.66895 11.4432 4.22768
1593 4 1.74114 16.8309 6.90516
2334 4 4.70897 12.1179 8.37368
2623 4 8.38872 12.7487 5.229
1479 4 8.37981 15.4395 7.8013
301 2 8.40347 9.31232 6.76174
116 2 3.78673 13.114 8.77955
662 2 4.87147 13.9364 10.8075
208 2 5.17141 16.3669 11.0168
1020 2 8.27674 14.224 10.5037
1321 4 4.194 9.30089 10.4997
2616 4 2.42575 10.5579 9.3255
538 2 0.971357 10.3944 11.7143
1512 4 5.6383 12.8808 11.1056
2437 4 4.95954 15.0976 11.5595
2941 4 7.23011 14.6228 9.71794
1726 4 7.98268 11.1886 9.65067
1241 4 3.95902 13.9249 9.80766
1408 4 2.24828 9.77781 11.6154
2088 4 8.02408 13.315 11.535
2139 4 5.16452 16.7544 9.65285
2814 4 7.08336 10.1022 11.537
232 2 2.9731 9.90366 10.437
922 2 6.74515 12.8087 11.8668
996 2 6.80071 9.06618 12.4676
2026 4 0.881221 11.6506 12.2092
443 2 8.12636 10.2531 10.6454
1039 2 5.00785 16.1431 8.41682
183 2 7.22654 15.1309 8.43358
2079 4 5.52638 8.46337 12.3893
2135 4 7.88041 16.723 12.4981
229 2 7.90438 10.1065 15.8204
2366 4 1.76662 11.7152 14.4027
389 2 1.65881 12.2161 15.7102
2652 4 4.22779 13.7236 14.4208
1063 2 1.04973 14.4741 16.6875
2977 4 6.54614 12.3291 13.1654
2145 4 0.717749 16.2925 14.1512
691 2 4.97184 14.4042 15.3663
2606 4 2.98333 15.597 13.7777
1533 4 5.39686 13.6397 16.4862
953 2 0.03713 10.5707 16.3333
2571 4 5.17713 15.7231 15.3523
2121 4 1.94024 13.5228 16.0585
629 2 3.03908 14.2222 13.7789
2426 4 1.62728 15.9078 16.4654
409 2 7.2066 12.0796 14.3018
2714 4 7.07183 10.8953 15.0191
1687 4 1.1656 11.3177 16.6284
2380 4 7.61551 8.48867 13.3683
616 2 1.91122 16.3224 13.3984
74 2 0.377593 16.2519 15.4634
142 2 7.53886 16.2354 13.7927
2150 4 7.82768 14.9218 14.0467
296 2 5.98 16.7825 15.6335
2736 4 2.21824 13.5142 12.9497
511 2 1.64285 12.3138 13.1548
1597 4 7.30572 13.0515 20.6043
405 2 2.7294 11.3163 20.1809
48 2 6.43995 14.0653 20.0093
1343 4 7.84464 10.0021 17.1581
2917 4 0.715773 14.2471 18.0031
627 2 5.02055 10.6715 19.2349
2085 4 5.76795 13.8077 18.8215
1243 4 3.30997 14.7202 20.2611
1517 4 3.41074 15.4932 17.9528
1762 4 7.56651 9.55711 19.3475
976 2 7.96225 15.7968 21.0117
754 2 6.83041 9.68414 20.4969
1679 4 5.59663 10.2942 20.4496
2116 4 1.75311 12.1761 19.724
505 2 7.45163 15.9284 18.4388
169 2 6.01879 14.2116 17.5459
1420 4 5.75115 10.5033 18.0471
2518 4 3.7316 11.0227 19.2197
257 2 3.3397 15.7762 19.3095
1264 4 7.24063 15.4575 19.7793
428 2 7.01771 10.0618 18.209
2097 4 7.08065 15.0998 17.4272
743 2 0.645849 12.7263 20.3835
911 2 2.78346 16.3643 17.0494
2572 4 0.977463 8.51605 18.6427
787 2 6.25577 15.0206 22.5843
350 2 7.49706 13.4904 24.2209
507 2 4.13211 14.3917 21.2943
417 2 6.8799 8.67943 22.8379
2994 4 2.30723 10.1356 23.5543
777 2 1.72907 10.0421 24.8282
2646 4 3.75574 13.7359 22.405
665 2 0.64242 14.2726 22.3211
2371 4 8.14452 14.5084 24.8202
47 2 1.33588 15.8696 24.3726
2344 4 5.41093 16.0791 23.0635
1368 4 7.28024 9.14283 21.6317
701 2 2.85306 13.7777 23.3904
10 2 2.02699 10.4261 22.2974
2235 4 3.03298 13.213 24.6382
2632 4 2.92746 10.9059 21.4175
1246 4 7.57663 8.91505 23.9415
1283 4 1.69349 14.6181 23.2351
2670 4 6.34567 13.7861 23.3697
2600 4 0.717151 10.3062 21.8364
2189 4 7.53323 15.4275 22.17
1325 4 7.69465 12.148 24.5058
2567 4 2.67369 16.1867 24.7913
1576 4 0.762634 13.0397 21.7522
1896 4 5.49686 14.5005 21.1308
2202 4 0.427008 15.3024 25.3274
2709 4 0.555974 10.675 25.2164
975 2 0.0778566 9.09799 21.7436
1292 4 0.622682 16.7707 23.5017
1 2 6.32364 10.2067 28.0932
2837 4 6.95215 11.4057 28.0355
9 2 7.87726 12.2137 27.4546
582 2 6.79413 14.3897 27.5772
1945 4 2.99979 8.71438 27.9471
2980 4 6.69618 15.6413 28.1323
2208 4 4.96813 10.1489 27.9074
2455 4 7.86121 13.6196 27.9163
1078 2 0.194302 10.8082 26.5465
2728 4 1.00875 10.1277 27.4927
1677 4 5.65603 13.7978 26.9629
980 2 4.43893 14.4059 26.8809
1331 4 3.34336 13.6118 26.862
84 2 2.13864 9.43368 27.1181
402 2 4.33928 9.00432 28.1735
940 2 0.579847 16.4345 28.6503
1589 4 7.01813 9.09048 28.3519
2265 4 2.43026 9.28729 25.7488
1771 4 1.19018 13.2432 26.1844
1056 2 3.22052 16.4809 26.0536
451 2 2.495 13.3602 25.8756
2277 4 4.30491 15.7504 26.5472
440 2 0.147494 14.0126 25.7407
1380 4 1.90498 16.2929 28.7869
880 2 6.96401 16.3293 29.3141
2539 4 3.22463 13.9001 30.7406
1193 2 6.32413 13.1377 32.5152
302 2 7.0789 10.8141 31.6671
2245 4 0.0912802 16.5577 32.7025
27 2 0.594037 9.52232 32.0546
920 2 4.6343 10.4446 31.0275
762 2 3.07767 15.1889 31.1585
1772 4 6.49653 13.7237 33.7119
2576 4 1.97965 15.3926 31.8881
2013 4 3.76731 9.36597 31.0047
2212 4 6.00444 10.3224 30.9181
1926 4 5.30269 13.5855 31.6994
1961 4 0.176732 12.8001 33.357
729 2 1.48689 16.4252 32.69
2257 4 4.02532 11.6862 30.907
2340 4 6.96348 11.9996 32.2372
552 2 0.820554 11.5819 33.3099
727 2 4.17967 13.0269 31.1793
2025 4 0.638868 10.8575 32.1942
2978 4 8.22789 16.0718 29.9099
2873 4 3.95804 16.2069 30.8947
1637 4 8.24271 10.1502 31.8624
2075 4 0.694269 8.66299 33.2296
2005 4 5.60822 10.1239 33.6897
213 2 5.84438 8.7694 33.4278
2706 4 0.447252 8.90087 30.8671
1834 4 6.73293 22.6804 3.93672
1954 4 6.2063 18.9077 1.20862
804 2 6.66837 22.1769 2.62763
2962 4 6.43376 20.8259 2.44844
1972 4 3.83198 23.8684 2.68886
763 2 6.74263 24.4341 1.78359
2619 4 6.68784 23.0734 1.49325
1338 4 8.00528 25.011 1.71278
2469 4 3.21926 23.7495 0.435991
738 2 3.37273 23.0752 1.64017
1061 2 6.93278 20.0426 1.46135
2312 4 3.29586 21.7098 1.72938
1277 4 3.02974 19.4505 1.05411
852 2 2.94151 18.6616 2.15191
2565 4 3.08604 17.3021 1.9729
423 2 3.31348 20.7603 0.735224
1991 4 2.67437 19.1883 3.33766
210 2 0.0569088 18.2698 3.99592
122 2 4.38978 25.1162 2.36265
1387 4 5.66569 25.1946 2.00462
1770 4 8.07779 20.2532 0.816797
834 2 5.84201 18.329 -0.00697623
2703 4 2.81709 24.0991 6.96977
1997 4 7.84907 21.6677 5.80843
2955 4 0.705246 17.3553 4.86167
1911 4 5.04793 19.9166 6.97251
1957 4 5.98908 17.9314 4.75317
347 2 4.75099 20.7714 5.89826
488 2 3.13134 19.3409 4.6197
1200 2 1.72197 17.5621 5.74576
780 2 2.65398 16.9145 7.90397
1291 4 2.64818 18.5405 5.59061
1974 4 5.4393 21.899 5.76269
124 2 7.13063 18.1442 5.46662
717 2 6.65154 22.0349 5.17716
1515 4 3.89542 20.4542 4.8376
557 2 5.71257 20.2408 8.14903
2889 4 0.0388233 23.758 5.90627
2785 4 7.97082 19.3031 5.22614
2288 4 7.52758 17.1478 6.38247
2701 4 2.8077 21.7841 7.88031
44 2 2.49081 23.1675 7.92128
237 2 8.37007 20.418 6.03004
2933 4 0.191115 21.5279 5.24761
686 2 1.05762 22.7265 9.87566
1396 4 2.21457 17.4316 9.14179
2723 4 1.59048 21.4932 9.97273
1111 2 6.75704 19.3429 10.1161
893 2 1.14339 17.8841 11.6435
1196 2 2.31107 18.6765 9.68916
1640 4 1.53291 18.8976 10.8346
1357 4 7.54247 18.2918 10.673
1791 4 2.98434 19.7739 9.17268
1064 2 5.7417 21.4973 10.1229
1643 4 6.34512 20.4569 10.8289
2328 4 1.64803 23.6059 9.02746
1835 4 1.99122 17.0849 12.2885
1704 4 5.55311 21.4626 8.78246
1045 2 7.09971 17.5044 11.6676
1308 4 5.34342 22.714 10.62
721 2 2.45936 20.9922 9.0273
2417 4 6.48198 19.1951 8.7315
510 2 5.41844 23.2398 11.8386
2040 4 4.90036 24.537 12.0223
1822 4 5.69982 17.3208 11.8305
1975 4 7.12325 25.1371 12.1536
984 2 7.86621 21.5373 15.4581
2482 4 3.24542 22.905 16.6412
2391 4 4.83191 23.081 14.8053
2551 4 7.07384 22.6103 15.0489
905 2 4.29278 22.3578 15.9047
168 2 6.05717 22.7642 14.2058
2196 4 4.9012 21.1808 16.315
2397 4 7.87398 21.3018 16.7926
1930 4 0.651224 23.1877 16.147
1993 4 7.00093 17.0403 14.6979
2514 4 5.65329 17.7305 16.5819
2390 4 0.0335573 21.623 14.4539
2865 4 3.20512 17.6194 16.7768
1588 4 6.17621 22.7186 12.8679
2266 4 1.15247 24.6488 20.0481
670 2 7.80153 20.4674 20.3357
445 2 2.35439 17.899 20.2079
1861 4 3.52025 24.8055 20.102
2512 4 3.37936 17.0751 19.8081
1956 4 3.41011 21.2053 18.3187
13 2 2.77155 22.2316 17.7423
1340 4 1.0151 17.537 20.1566
1886 4 7.05299 19.5206 21.0035
450 2 0.657441 23.4025 17.5004
1980 4 1.62056 22.7846 18.2851
241 2 8.04498 25.2509 20.7476
2018 4 -0.00562045 19.5919 19.4283
141 2 4.45378 18.213 17.0287
1107 2 0.131105 20.6515 20.2734
986 2 -0.0379826 18.2617 19.6165
935 2 -0.0408061 24.2935 19.5176
1976 4 7.9273 17.2134 18.2035
2590 4 4.60998 19.3464 17.7926
2916 4 7.93496 20.3429 18.993
119 2 8.23696 20.2714 17.6481
624 2 4.35292 20.633 17.5196
1496 4 8.3555 21.5225 21.0176
640 2 2.3264 25.0433 19.4853
2743 4 2.78227 19.0557 20.8458
2481 4 8.30183 19.384 23.0411
42 2 3.16019 22.1447 22.5943
2550 4 6.24661 18.3387 22.8176
129 2 7.19513 19.0327 22.2857
544 2 6.83097 21.4127 24.9017
251 2 6.26492 23.8368 24.8088
1836 4 7.94379 21.4806 24.1548
273 2 1.51595 22.2905 24.4538
2296 4 0.246948 22.3029 23.8826
1693 4 6.31337 17.3458 24.9502
2975 4 2.6307 22.695 23.7994
1121 2 6.07573 17.2448 23.6707
1234 4 6.9499 24.2271 23.6874
2298 4 3.82737 22.836 21.6247
1906 4 6.08915 22.5252 25.1779
630 2 3.80276 24.2079 21.3284
401 2 2.3555 20.1801 21.445
1239 4 3.1349 20.7958 22.4221
1578 4 6.91579 25.1951 21.5266
2011 4 3.95878 25.1011 22.3353
2548 4 6.35163 20.1152 25.2648
2511 4 1.13196 20.7918 21.1656
458 2 4.12382 23.4174 29.1845
386 2 6.28871 19.753 26.5696
1542 4 5.7254 24.8066 25.613
715 2 4.78776 21.5541 27.6831
1415 4 5.78616 20.6083 27.4526
1927 4 3.53679 21.4594 27.1115
225 2 2.6681 22.408 26.5455
2275 4 5.01658 22.6449 28.5031
2731 4 8.394 17.0888 26.0241
895 2 1.81126 24.6869 26.5392
1510 4 2.84809 23.7457 26.8288
2089 4 4.5356 24.6951 29.4098
1977 4 7.9682 24.5619 29.1984
2030 4 6.84685 18.5789 26.9104
2435 4 0.956793 24.6043 25.5206
992 2 7.19901 17.6538 25.9264
2167 4 0.191757 17.6719 28.1393
2589 4 2.69694 17.4325 26.9041
1813 4 1.59849 22.0218 25.8298
2302 4 3.89583 17.5828 28.9622
685 2 2.80588 17.193 28.2471
2629 4 2.88193 22.9261 29.505
1140 2 4.57924 17.0237 29.9474
912 2 2.43791 23.6067 33.2253
2039 4 2.8027 24.3175 32.0839
2969 4 3.45909 21.1247 30.9397
1671 4 1.2474 22.8851 33.3582
948 2 7.99059 18.659 32.5122
2134 4 1.32698 22.2083 31.0856
2333 4 3.25272 19.1043 32.1245
1096 2 3.4609 18.031 33.0557
746 2 0.728656 22.0527 32.2964
707 2 2.54397 22.0633 30.4955
613 2 3.46178 20.3834 32.1088
1230 4 6.60637 18.5605 32.7462
1228 4 2.33531 17.2973 33.3495
1429 4 3.64277 21.1192 33.3277
1819 4 6.00287 17.1269 29.9255
2130 4 8.34936 19.8531 31.9407
1445 4 4.63507 17.7615 33.6017
2246 4 4.67976 29.5087 0.201387
595 2 4.18455 29.22 1.45079
2010 4 0.702061 29.7988 1.9971
4 2 1.97783 29.5894 2.42879
461 2 0.289573 25.426 1.73512
2932 4 2.82831 29.0698 1.51795
2784 4 4.5707 31.4211 3.28747
1180 2 5.06996 30.1825 3.52897
1444 4 3.6828 26.2682 2.38782
2580 4 5.03322 29.166 2.60651
620 2 2.34801 26.3998 2.5614
1839 4 0.810247 33.7014 0.290013
902 2 7.92221 31.6977 0.611836
2602 4 1.46859 26.0719 1.55778
1332 4 7.92017 32.2746 1.81315
1487 4 1.81868 26.917 3.6667
1138 2 4.55394 32.4767 4.17218
2708 4 3.93884 33.6698 3.84277
1784 4 2.30751 29.8693 3.72134
1665 4 8.15157 25.9913 3.86982
2856 4 1.37778 31.6782 7.80105
1602 4 5.52086 32.5203 7.69224
2615 4 6.09567 30.3962 6.98629
2501 4 2.39543 28.3631 5.61859
954 2 2.19852 27.097 5.00934
678 2 1.26118 31.7024 6.43017
425 2 6.33131 30.6264 5.61234
2506 4 5.2654 32.2696 5.35685
1130 2 6.10309 31.27 7.94731
589 2 2.15874 29.6559 5.01977
2491 4 7.60049 31.1888 5.19849
1254 4 1.97282 30.7329 5.80392
1466 4 2.07021 25.9935 5.73053
2601 4 0.555155 32.5928 5.70098
2404 4 2.89336 26.1668 8.01494
32 2 4.9066 32.8826 6.5806
2358 4 5.74313 29.7811 4.66272
899 2 2.55317 25.4536 6.90959
379 2 8.17257 27.6585 7.15505
1412 4 7.889 26.917 6.049
2157 4 7.43391 27.4938 8.30429
2162 4 5.11504 26.9565 7.84503
1177 2 8.37037 26.9762 4.75066
793 2 3.82029 27.1798 8.30251
812 2 6.16625 27.2951 8.72578
2141 4 5.84812 27.42 10.0377
2195 4 5.39763 32.7251 10.4352
87 2 2.32206 28.8131 9.41077
725 2 0.00788541 29.2691 8.73537
2870 4 3.54032 28.4063 8.90509
2974 4 5.90814 28.9618 11.8091
626 2 6.44583 27.9214 11.1621
2480 4 6.5458 30.9975 9.21496
1318 4 7.62201 32.0373 11.1171
493 2 4.02875 32.7048 10.3423
2903 4 7.6595 27.4243 11.5324
2972 4 3.33313 31.5055 10.5129
884 2 6.4716 31.8958 10.2989
2062 4 2.25489 29.3832 10.6448
642 2 2.8579 30.4779 11.3001
579 2 0.503081 31.6813 8.92937
2054 4 1.0945 28.4381 8.7855
108 2 8.01913 26.1108 11.6845
2269 4 0.307567 32.8313 9.69465
951 2 5.80019 25.4266 12.4662
1995 4 5.96462 26.5182 15.4769
1564 4 5.80759 32.8624 14.1685
2559 4 5.66656 30.6007 13.5318
906 2 5.99891 29.314 13.1491
2400 4 2.74629 32.7707 13.2041
127 2 5.93706 31.5056 14.5592
261 2 3.40035 29.8254 15.3359
2305 4 6.18263 31.1162 15.8726
2285 4 3.31783 31.0921 14.8346
153 2 1.77216 27.8935 15.8293
1339 4 2.32839 28.9489 15.0497
2654 4 3.12523 33.7179 15.3049
2405 4 6.50411 28.4202 14.0809
1568 4 5.49564 26.5046 13.1522
792 2 2.97153 31.5262 13.5806
1871 4 0.885563 27.0539 15.2654
2238 4 4.45795 29.5486 16.2025
924 2 5.99577 27.1579 14.2312
694 2 6.72215 26.5189 16.5987
238 2 5.59079 30.1548 16.6563
2696 4 7.93374 27.1849 16.7009
1402 4 2.91835 30.406 12.6782
1527 4 6.07409 29.8589 17.9081
496 2 6.79936 28.3679 20.2749
1796 4 2.27466 25.5939 18.2269
2256 4 0.336749 27.0257 18.3859
170 2 1.57022 26.7116 17.9044
2303 4 4.00698 32.4667 18.024
1760 4 6.22377 27.2473 19.6787
772 2 3.13423 31.5216 18.5677
67 2 0.935161 32.704 18.9088
753 2 7.32236 29.9689 18.4028
2267 4 1.77905 31.7609 18.3071
1973 4 5.42751 32.2463 20.6956
1295 4 6.20979 25.8916 17.7163
2284 4 3.5032 30.5103 19.4115
1611 4 7.43149 29.3593 19.6234
1033 2 3.1978 30.3752 20.7596
258 2 5.91609 33.2895 19.9777
104 2 6.81783 26.2646 18.9517
1431 4 8.38045 30.5183 17.6793
499 2 4.39494 33.7709 18.1791
2830 4 7.25198 33.5496 20.1788
1500 4 7.89108 25.553 19.4477
1607 4 2.32247 27.6522 17.0792
1075 2 3.44909 32.6894 24.3816
2838 4 1.33376 26.1906 23.7935
2899 4 0.354147 31.5656 22.5186
515 2 5.8619 27.6394 22.8813
1397 4 0.733276 30.906 24.7634
2322 4 6.14716 28.9321 23.6417
1942 4 4.37938 33.5415 23.7204
649 2 1.15999 31.6795 23.6821
2626 4 4.57663 27.4205 22.4354
2084 4 2.37801 26.9118 21.8039
2582 4 5.33489 30.8502 24.6957
1863 4 6.63808 26.6051 23.401
2201 4 6.62474 30.8059 22.118
408 2 3.66466 26.4906 22.1754
1350 4 2.4424 29.3664 25.1086
2032 4 6.84351 28.3658 21.6662
157 2 1.24579 26.718 22.4693
909 2 7.14579 29.5889 22.5056
1229 4 2.31978 32.4962 23.6504
279 2 5.44604 29.4937 24.685
2520 4 0.0427523 27.061 21.9582
189 2 0.673287 30.7661 21.4579
2727 4 1.93687 30.2 21.2976
29 2 0.454293 25.5052 24.5496
1549 4 4.25104 30.4232 21.6187
907 2 5.48669 31.1661 21.5005
435 2 6.82315 25.3819 22.8962
1986 4 5.18981 30.9825 27.1756
1555 4 2.91907 27.2869 26.1345
977 2 6.64239 31.7871 27.1736
432 2 2.20288 26.9983 27.2303
2430 4 1.9114 30.0594 29.2323
2513 4 3.33235 29.4568 27.3236
1609 4 1.77591 27.9322 28.1341
1369 4 6.69135 32.4335 28.374
2114 4 7.59063 30.7805 26.8277
1417 4 1.05394 29.9283 26.9341
993 2 2.06517 29.2373 28.0191
393 2 4.31552 30.254 27.948
429 2 1.41903 30.0996 25.6166
1212 4 1.86099 25.7195 27.4648
497 2 4.9843 31.6247 25.8471
1203 4 7.35656 26.4076 26.2441
1955 4 4.43559 30.3268 29.259
1285 4 6.16478 32.7019 26.0706
212 2 3.35031 28.6019 25.8819
1197 2 7.79657 33.1553 28.7826
2987 4 5.3685 26.0327 27.5135
963 2 6.14972 25.7621 26.4403
1003 2 5.40017 25.6111 28.8912
2218 4 4.74331 28.6381 25.5238
1573 4 3.67085 32.2836 25.6623
1023 2 7.42322 27.2363 33.133
2599 4 6.12876 27.6659 33.2935
2081 4 1.88183 32.7694 32.2351
464 2 6.68365 31.0747 32.4813
2297 4 7.65682 25.9936 32.7384
16 2 7.35456 33.1298 31.2414
2008 4 3.02323 26.5787 31.3659
2848 4 8.01455 33.4913 30.1142
2715 4 0.807362 25.6759 31.7407
2362 4 3.1054 31.1698 31.1521
38 2 3.42627 30.0873 30.2652
702 2 1.94486 31.7607 31.3594
1179 2 2.47848 27.8693 31.1207
2458 4 3.43786 28.7746 30.7954
1256 4 1.11893 27.9985 31.3299
1135 2 0.333592 27.0284 31.8298
2182 4 6.32731 29.7556 32.3645
2771 4 6.89847 31.8444 31.4023
467 2 0.869751 33.5087 32.8107
2827 4 6.34498 26.1909 29.6988
171 2 5.82062 28.9917 33.3585
1595 4 0.728364 31.4136 30.7308
921 2 2.2004 25.4994 31.7585
348 2 0.757687 30.8014 29.568
2248 4 6.74684 31.6777 33.774
107 2 7.65543 25.8578 29.5983
2418 4 15.2967 1.07391 2.01347
1550 4 12.6004 1.92424 0.363871
2732 4 11.538 7.12686 3.20074
1644 4 15.5292 6.40131 0.809819
2411 4 13.7513 6.9372 2.23863
1053 2 13.2309 3.12339 0.499275
697 2 13.3883 2.8317 3.00835
1028 2 11.3288 2.05566 4.1019
178 2 15.8844 0.616544 3.15607
1565 4 13.609 3.51492 1.77455
2985 4 11.8302 6.16983 0.985442
175 2 16.6238 5.97838 1.57177
1410 4 9.63066 5.31053 0.920074
415 2 12.3223 6.7641 2.13467
1802 4 14.1812 3.13057 4.02296
71 2 15.0077 0.125904 1.02649
731 2 14.3834 7.13524 1.01821
2117 4 12.3042 1.90816 3.13708
2255 4 16.5148 6.2562 2.92818
894 2 8.94115 0.940717 3.98916
537 2 10.5808 6.17909 0.382255
314 2 11.3468 7.99073 4.16522
2954 4 14.1881 0.319158 -0.0540821
1526 4 10.2941 1.13698 4.11105
2754 4 13.8834 7.945 0.0129784
2327 4 16.5183 4.2545 7.62595
1065 2 12.0538 1.28688 7.22012
2258 4 11.2374 3.10435 4.99682
361 2 14.1276 5.8971 6.22976
1561 4 12.7795 0.924089 6.03707
1928 4 11.6038 2.59534 7.33956
162 2 16.0252 3.03482 7.19406
1758 4 15.4944 5.88058 6.10037
487 2 11.2229 3.43297 6.31598
2546 4 15.2008 2.90867 6.1064
1104 2 13.5941 8.10142 5.12817
1844 4 10.4804 4.53049 6.71072
1641 4 9.06895 3.52247 8.34588
1378 4 13.3835 6.73003 5.44
312 2 9.00093 7.5516 5.28502
2561 4 13.4479 5.04614 7.07865
1169 2 15.155 2.4646 4.79227
2894 4 16.2435 1.87807 8.00282
406 2 9.7005 4.63726 7.82256
637 2 16.5796 5.42153 6.84363
2409 4 9.44414 5.91181 8.17945
2574 4 10.2088 8.09855 4.86411
2436 4 8.50456 7.97798 6.47332
1211 4 15.9561 1.49193 4.29221
2073 4 11.8532 0.561655 8.31404
1545 4 10.573 5.00254 10.5161
1781 4 8.52289 6.10994 10.3757
2346 4 12.6508 4.9989 11.7241
2259 4 12.5101 4.77763 9.27749
1434 4 12.9358 7.71386 10.1983
1268 4 14.4485 3.45786 11.1582
2637 4 9.49947 5.78763 12.4471
321 2 13.9254 2.35056 10.5796
1882 4 12.8938 1.64437 11.2016
961 2 11.9532 4.98823 10.5039
2393 4 14.3173 2.04519 9.35326
749 2 9.56623 5.63314 11.0719
562 2 15.5711 1.52398 9.08793
513 2 14.0325 7.62082 9.28568
710 2 13.8658 4.38929 11.9164
1519 4 14.3162 6.37605 8.82109
2519 4 16.041 0.471224 9.92213
236 2 12.4671 1.76125 12.4678
719 2 13.4322 5.37128 8.4964
1208 4 15.4129 8.02047 12.098
1166 2 11.4156 1.16916 14.4026
2765 4 10.7383 2.03743 15.166
2890 4 13.8746 6.79082 15.8611
2087 4 10.3078 3.93678 13.7706
958 2 13.5506 8.02168 15.3102
2123 4 16.5833 5.06249 14.277
399 2 10.6809 5.64844 15.8463
914 2 14.3689 2.08873 14.0449
1703 4 10.8868 4.27325 16.0805
227 2 10.0899 5.25528 13.5517
1880 4 14.0475 8.24254 14.0324
2310 4 13.1867 2.51999 13.4137
2555 4 10.4442 6.1215 14.5725
2268 4 15.4071 2.97018 14.3662
698 2 15.5171 4.24125 13.88
1585 4 14.5471 4.79684 13.0557
1195 2 10.671 3.42467 15.0166
1773 4 14.4621 0.776254 14.4553
1492 4 12.2414 0.288681 15.0027
2176 4 11.3738 1.24404 13.0213
2745 4 10.8726 6.52425 16.8494
684 2 15.4335 5.37697 18.7304
325 2 11.4884 6.83626 17.9821
2577 4 12.8681 6.76039 18.0047
952 2 13.9363 1.93678 18.8475
422 2 14.8368 7.14439 20.1492
1614 4 15.0392 1.71934 18.0421
600 2 15.6132 0.58738 17.408
1953 4 8.95751 1.45058 19.8851
950 2 8.69615 2.52682 20.6662
1257 4 14.8008 5.37772 17.4956
217 2 10.8725 6.74228 20.3675
1634 4 10.9013 7.24256 19.0945
60 2 13.8434 6.34074 17.1311
2967 4 16.6771 4.79988 18.8011
2812 4 14.7971 5.8222 19.804
1313 4 12.7138 1.33134 18.4867
1476 4 14.0348 2.66537 19.955
1999 4 11.3374 5.5251 20.6655
1616 4 13.7512 7.74661 20.7206
508 2 13.1832 2.60947 21.0318
2227 4 16.0088 7.84163 19.7265
756 2 12.4228 0.0459051 18.9422
1360 4 13.9023 6.67349 24.3357
392 2 14.7199 3.3447 24.0706
1227 4 8.51635 2.20463 23.9616
1259 4 12.5733 3.71988 21.5301
85 2 13.4552 5.50139 23.7885
2105 4 13.7267 4.25286 24.1363
63 2 10.6099 4.07838 25.0005
449 2 9.66558 7.56785 22.4918
1828 4 12.9348 1.44786 21.6751
1238 4 14.6032 2.37183 25.0349
1931 4 9.4611 2.7734 21.8309
337 2 13.3841 0.664118 22.7002
2283 4 12.7324 5.76286 22.6336
2707 4 15.657 3.44584 23.0877
741 2 15.1142 6.96849 24.9499
146 2 9.31461 2.92479 23.1745
2447 4 14.7157 0.466789 22.7985
2183 4 10.2065 3.80582 23.7677
179 2 12.2095 5.04942 21.6231
2466 4 16.2272 6.07965 24.9751
1682 4 16.0073 0.462682 24.8153
794 2 8.60646 0.825681 24.1916
2633 4 10.1965 7.58958 21.2722
2911 4 8.81069 6.52521 22.8853
2360 4 12.4443 0.257919 23.5777
2264 4 9.72414 0.153612 23.9058
1572 4 8.85844 6.20292 25.267
2314 4 16.7399 7.65686 22.0226
2497 4 10.915 5.3952 25.3303
2968 4 10.3415 7.306 26.7564
638 2 9.28087 4.12123 28.837
1421 4 11.4631 2.00907 27.9863
2925 4 8.8148 2.92108 29.394
1067 2 11.6655 0.666318 27.7533
2052 4 10.3701 4.0716 27.9977
915 2 11.2339 8.06842 27.5568
1358 4 15.4972 1.13085 26.9716
186 2 10.9011 3.04719 27.2993
1432 4 10.9159 3.0939 25.9367
663 2 15.2407 1.94166 28.0209
972 2 10.0949 6.37054 25.8183
2194 4 14.3957 2.97803 28.0235
1776 4 15.9687 1.72486 29.2416
2448 4 8.80853 5.37132 29.263
2161 4 13.1385 4.70147 29.1319
113 2 15.3603 1.37518 25.6013
1008 2 13.9764 3.66847 29.1972
2797 4 10.7782 0.0381144 26.8618
1851 4 15.3613 8.22586 25.5173
2668 4 12.5683 8.19265 27.3378
1705 4 12.7476 0.0818153 28.2375
1825 4 16.8311 7.85426 28.3614
796 2 12.9268 0.832568 33.4782
2517 4 11.9431 3.06361 31.6982
2915 4 13.4433 3.93568 33.37
1628 4 14.3449 3.27916 30.4709
2943 4 12.6152 6.89526 29.8487
1284 4 12.0686 0.110945 32.6918
803 2 10.6226 2.83238 32.0992
1105 2 10.7286 0.369174 32.6849
2369 4 10.2271 7.06915 33.3067
877 2 14.2543 8.11325 32.5721
1579 4 10.1549 1.61542 32.4732
1148 2 12.8988 5.58166 30.0958
230 2 14.9762 2.00379 30.8114
2905 4 16.0166 2.02567 31.8092
2064 4 9.72316 3.92431 32.2045
1629 4 12.8435 5.33743 31.4943
290 2 12.7543 4.0875 32.105
757 2 13.0507 8.09678 30.2956
2100 4 14.2353 0.845168 30.6823
2639 4 15.5393 8.01651 32.0887
454 2 10.7059 8.39655 33.0622
252 2 16.6721 7.3345 32.2174
2331 4 16.8244 6.06704 31.7174
2515 4 11.4477 10.9179 3.75935
1006 2 15.6893 13.6885 2.89225
2445 4 13.0885 10.4808 0.783962
918 2 13.7587 15.3132 2.05906
553 2 14.2891 11.048 0.370332
997 2 13.9384 12.1592 3.84492
2831 4 10.6781 12.7848 2.35632
1646 4 15.3007 9.62035 3.19584
2379 4 12.83 12.8238 3.39177
1768 4 14.8932 14.6143 2.32849
837 2 16.0232 10.0296 2.14853
1778 4 13.224 15.4246 0.801434
1534 4 13.1241 16.0002 3.05426
1720 4 15.1825 12.739 3.75941
1002 2 11.5552 12.1542 3.16829
1073 2 9.30456 12.6836 2.0964
1379 4 15.4254 10.8248 1.12449
1342 4 8.65288 13.2373 1.00076
1480 4 8.5628 11.9831 2.98831
722 2 8.71365 16.7024 1.57855
2564 4 11.2696 9.18733 0.147463
660 2 11.9123 10.389 0.108187
2229 4 9.58748 15.9338 5.7513
2740 4 10.453 12.2986 6.2269
30 2 16.0148 13.5433 6.484
802 2 15.1612 9.85188 4.61368
1688 4 14.0391 15.8553 5.1745
61 2 11.3675 11.5246 6.87433
1963 4 16.3313 16.6216 4.63722
2140 4 15.8693 14.8867 6.21999
1215 4 16.0962 10.6974 5.25268
40 2 15.4207 15.7527 5.27914
2057 4 11.6163 11.6942 8.18389
573 2 10.9175 15.9813 6.01757
2174 4 12.107 10.6038 6.15221
2428 4 11.6292 15.7145 4.86503