ITEM: TIMESTEP
120000
ITEM: NUMBER OF ATOMS
3003
ITEM: BOX BOUNDS pp pp pp
4.0131373153900540e-01 3.8866284615973100e+01
4.0131373153900540e-01 3.8866284615973100e+01
4.0131373153900540e-01 3.8866284615973100e+01
ITEM: ATOMS id type x y z
543 1 7.51504 6.81297 3.75355
527 1 3.77974 8.57034 2.06593
2657 11 4.32125 1.35664 1.70942
1124 10 8.65515 3.71787 1.20524
2379 11 2.80219 1.20335 4.60951
2215 11 8.56792 5.72987 1.75795
2808 11 5.27268 6.83026 0.89983
820 1 4.78152 4.03153 1.23583
2572 11 1.29494 8.34014 1.88044
1098 10 8.83109 9.32661 3.04182
1236 10 4.38167 1.96168 3.65051
1884 11 4.75246 6.95631 4.5031
436 1 6.49064 1.16053 1.28585
1977 11 4.64404 4.0271 3.78251
937 1 2.85167 5.41907 4.82857
1598 11 8.68626 2.53387 2.87512
2277 11 7.19309 8.59056 2.11745
1546 11 0.918126 5.35582 3.40461
2149 11 8.98346 8.41033 4.83534
736 1 7.35576 3.53778 4.64328
1421 10 0.75723 7.36919 3.56398
1544 11 0.945702 2.3499 0.799427
3001 11 6.06825 1.32779 4.87797
1083 10 3.79806 8.56505 5.20347
2931 11 1.70491 8.41961 5.3295
1419 10 3.38965 4.37979 8.4418
1814 11 1.97519 4.54873 7.02069
1971 11 4.18475 8.65457 7.17568
2683 11 5.21893 4.23153 7.61897
1741 11 6.74597 7.10084 9.04208
215 1 7.73206 3.88744 8.06234
2263 11 3.28444 6.10225 9.56712
698 1 5.6854 6.52982 6.85424
1723 11 3.15218 2.60622 9.38828
1132 10 8.45271 1.02487 9.48188
305 1 8.484 8.73164 7.63963
669 1 2.11326 7.33377 7.64039
2651 11 7.94283 1.28866 7.57723
2923 11 7.88241 5.4268 6.10153
534 1 1.81324 1.9067 7.19114
1276 10 9.96662 5.41692 6.36184
896 1 5.50782 1.71539 7.82989
2326 11 7.90365 5.73407 9.97914
529 1 5.23973 9.50222 13.9938
1355 10 3.59416 4.63984 13.0496
2826 11 5.26699 3.93777 12.0162
58 1 0.989446 2.85144 10.8026
16 1 2.68884 0.631842 13.6384
370 1 0.607912 8.8383 10.8541
872 1 7.19067 2.02769 13.1638
1167 10 3.03979 6.49358 12.0183
2996 11 9.38509 3.43049 13.6169
1675 11 1.13393 7.11595 12.298
2228 11 5.93888 7.47756 12.8122
1564 11 7.44105 2.17723 10.7617
1251 10 7.90637 8.24416 13.0141
2993 11 2.13104 3.14919 13.0319
1720 11 8.36342 9.23674 11.3477
1584 11 9.01402 6.55166 13.3829
932 1 1.80696 8.76365 14.073
55 1 4.16468 1.85561 11.303
290 1 7.17295 5.49442 12.4202
1882 11 5.23725 0.613038 13.4233
1432 11 7.82485 9.349 14.7651
331 1 5.6861 8.39181 10.6633
2711 11 3.27019 9.21343 10.271
2097 11 4.13475 5.77253 18.2528
573 1 2.29812 3.50893 15.5885
2580 11 3.82379 8.42918 15.6917
919 1 8.67652 1.7962 17.5199
621 1 5.74945 7.46449 19.2943
2550 11 0.850363 3.79154 17.5647
1145 10 7.73823 5.07528 18.3432
1192 10 3.34951 0.597149 17.5296
1772 11 2.58291 1.40082 19.2649
320 1 5.77952 7.07317 15.542
2920 11 6.99361 3.54607 17.2744
1790 11 7.20562 6.79604 17.3994
1927 11 1.00406 7.23001 18.382
980 1 9.7902 4.02722 15.9918
1502 11 5.17489 1.26452 17.0913
2041 11 2.17312 1.08149 15.997
241 1 2.3756 6.30928 16.6726
455 1 4.94708 3.24056 18.7591
207 1 9.07899 7.21435 15.748
1081 10 2.58395 6.52237 19.4084
1433 11 4.05296 5.2732 14.9641
1472 11 9.76302 4.79043 18.3699
1634 11 5.5895 9.91654 18.1215
73 1 9.14541 5.33714 21.6559
1205 10 6.42247 4.22766 21.8848
1823 11 0.724377 6.83531 23.2439
2157 11 1.20752 2.05634 21.5424
2946 11 7.04791 5.61076 20.4325
605 1 5.83975 9.16499 24.0665
2078 11 5.1122 5.40537 23.0041
1858 11 1.80579 5.11075 20.5865
332 1 3.23272 3.41698 21.9644
1957 11 8.02719 3.5972 22.9372
1519 11 3.51648 7.90014 20.5635
2586 11 7.96679 7.32388 23.3824
1311 10 9.76356 7.60598 24.2462
1666 11 9.02348 2.00677 20.1012
1750 11 5.52436 2.55278 20.9817
1703 11 5.58746 9.51512 21.297
338 1 3.17838 6.56207 22.5496
1489 11 9.89746 8.00776 20.1119
258 1 1.04284 9.362 19.8001
200 1 7.0634 0.591229 21.3767
2107 11 1.80724 3.825 24.2218
1377 10 6.95399 8.57325 27.3764
1715 11 4.90944 8.42362 27.8784
124 1 1.56858 6.14538 25.5022
2849 11 6.21811 4.2542 26.8889
2515 11 1.84399 8.10386 26.9405
256 1 9.26867 7.10058 28.9144
2583 11 4.86017 4.61134 28.375
85 1 7.34335 1.74978 27.5021
2697 11 3.11162 4.3511 27.489
414 1 8.07643 1.88051 24.8228
473 1 2.57437 6.61932 28.6292
1654 11 5.51563 1.72885 25.8444
1877 11 9.24903 2.84747 26.5144
1613 11 7.53861 6.64334 27.0919
423 1 2.90119 2.17512 25.8095
1088 10 3.60871 8.81523 26.1899
2940 11 7.95238 9.29698 28.9262
2288 11 4.07565 7.32872 24.8357
930 1 6.46582 6.14524 24.9006
11 1 9.6335 9.53079 25.593
2475 11 7.36386 9.75411 25.8622
1736 11 1.96192 0.410804 27.4383
762 1 9.70135 7.38194 32.5123
352 1 0.608118 5.85878 32.3553
1531 11 2.83093 4.72744 31.5893
518 1 5.21154 4.41521 30.9362
1507 11 4.79044 10.0024 31.8429
1042 10 4.24272 8.02204 31.8842
2963 11 7.93789 5.13087 30.1322
2845 11 3.8523 7.24919 33.7666
2330 11 2.45134 7.72454 30.8107
1840 11 5.66181 6.80162 31.0723
1707 11 2.10474 1.55877 30.8777
208 1 7.54622 2.49523 31.3429
60 1 7.50791 5.70313 32.4154
1403 10 2.31973 2.97051 32.3071
2788 11 6.58021 3.67878 33.1351
233 1 5.42916 1.40298 33.1155
1140 10 9.8269 4.36953 30.378
2432 11 9.93791 2.33167 30.5933
650 1 1.61162 3.64042 29.3963
1835 11 5.71366 2.03669 29.5789
161 1 0.521972 8.99494 30.1283
655 1 6.99133 9.81224 30.9954
2589 11 3.37157 2.43637 33.9377
2216 11 7.70275 7.55766 33.9804
497 1 9.14105 3.60492 33.9608
107 1 1.2157 2.64752 35.3825
1040 10 4.04664 6.25644 37.835
1870 11 1.847 2.03738 37.5421
814 1 5.7153 7.83329 35.3269
1573 11 1.4315 5.45334 35.1654
1226 10 9.10962 7.0332 35.3749
2299 11 8.84175 5.05108 35.8892
2052 11 5.40821 5.76195 36.3492
2637 11 8.74853 1.63226 35.7348
264 1 7.01994 3.23255 36.0286
613 1 7.25956 6.3695 38.1939
830 1 1.69314 7.9878 34.7241
515 1 3.85369 0.870961 37.4892
554 1 6.91999 9.43142 38.144
2943 11 2.74646 7.78596 37.2519
2183 11 8.76951 8.08664 37.2056
1517 11 5.54658 1.25054 35.5419
2868 11 6.97647 3.27443 38.6356
1528 11 5.66496 9.99884 36.1297
1787 11 2.94696 4.75108 38.3683
888 1 0.48247 7.31006 37.8585
522 1 4.50766 4.58358 34.1962
908 1 3.76958 9.87902 37.2449
1135 10 4.21568 12.7217 1.19068
1139 10 8.88448 16.4572 2.14485
1556 11 3.47606 16.6398 2.96891
2007 11 8.29198 18.3154 0.995038
2155 11 8.2745 14.7734 1.12336
2925 11 2.3585 12.9827 1.92159
1735 11 5.43126 19.3638 3.95673
1154 10 3.32273 17.4557 1.13932
957 1 0.862201 10.9784 1.17129
1651 11 8.53371 11.2801 3.47296
1837 11 7.44202 16.4305 3.80114
109 1 1.29333 15.2663 2.20607
2542 11 5.38972 13.2292 2.86627
459 1 9.58731 12.7383 1.79839
1270 10 7.08756 18.446 4.51536
132 1 3.38785 13.6721 4.13347
2233 11 4.72111 10.7529 0.935898
172 1 6.26105 10.7663 2.67581
520 1 5.73366 15.6665 2.24586
2686 11 4.05611 10.2688 4.20956
537 1 1.61203 17.0866 4.64849
2445 11 1.05001 14.3926 4.60409
1530 11 3.02778 19.4266 1.18729
253 1 0.968318 19.4442 2.80503
504 1 5.82249 19.3174 0.696544
1630 11 8.73217 19.5702 4.22166
627 1 1.67361 11.0988 5.12358
2546 11 1.25833 11.328 7.56588
2745 11 5.09843 14.6145 8.41927
1 1 4.20008 18.6 6.17608
1320 10 3.66156 14.3997 7.01711
1160 10 8.15142 11.6871 7.61377
2591 11 3.41433 17.7385 8.20321
1726 11 7.92116 12.2112 9.68634
2160 11 1.92569 14.8811 8.08533
876 1 3.604 10.7557 8.20015
212 1 1.11017 17.5156 8.11669
1773 11 6.73996 17.8709 6.50389
1074 10 4.13266 19.3908 9.06292
2833 11 4.10466 15.5425 5.4893
601 1 5.29669 16.8144 9.75103
296 1 1.32635 12.8505 9.76027
2404 11 3.66462 12.5564 6.2677
10 1 6.52087 15.5933 6.20104
2684 11 8.05246 13.2812 6.37624
2901 11 9.9204 10.733 7.36055
2709 11 6.56424 10.4902 7.36282
1888 11 1.92137 19.2554 5.27399
595 1 9.68292 18.889 6.36329
33 1 6.15585 11.9368 5.38564
1605 11 5.95945 19.0675 9.80971
321 1 2.76601 13.1997 13.6301
465 1 8.5479 15.676 13.0772
858 1 6.02491 13.4971 10.2189
697 1 6.71672 12.1551 13.8771
2701 11 5.32283 14.0626 13.7166
2174 11 9.02124 13.0167 12.7009
210 1 2.77276 18.3838 12.7827
1113 10 3.49804 10.8334 11.3712
914 1 9.92071 10.8617 14.703
1925 11 4.00328 16.5835 11.6863
2273 11 6.59563 17.3018 13.8226
1104 10 5.58498 15.8985 12.7295
1670 11 1.77343 15.6186 13.563
2224 11 5.4605 10.8623 12.078
2861 11 6.92128 15.3397 11.2902
1738 11 1.94086 10.8141 12.728
1180 10 9.59941 12.9125 10.7641
93 1 8.79058 17.6869 11.028
179 1 3.00711 15.0509 10.2303
2076 11 3.5298 12.5237 10.1127
2283 11 0.547158 14.7217 10.9635
2904 11 9.67663 15.1529 10.0405
551 1 5.44637 18.8485 15.3723
415 1 2.83476 13.1137 16.7918
2757 11 2.53922 18.273 15.4414
2652 11 4.51343 11.6028 15.4271
873 1 6.20466 15.1171 15.6594
1328 10 1.87467 16.3722 15.3553
701 1 2.11431 15.2366 18.9075
2498 11 8.6969 15.1226 15.424
354 1 6.99069 12.146 18.4956
808 1 8.70692 17.8477 15.8651
1374 10 9.36351 13.3999 16.5083
1919 11 6.52218 17.6004 17.1993
62 1 8.01752 18.4133 18.8201
2854 11 3.22342 15.5147 16.5642
2654 11 5.68175 14.2137 17.8435
38 1 3.24367 18.0282 17.7655
2090 11 2.48461 10.8468 17.829
1333 10 6.03398 16.14 18.5677
1511 11 8.10716 11.8897 16.1708
2558 11 0.86726 17.7266 19.113
1221 10 4.04603 10.1612 16.7975
1800 11 0.633653 13.1756 15.0903
2331 11 0.935519 13.1632 19.0488
2605 11 9.78621 13.9276 18.4525
2023 11 4.17772 16.7485 19.392
920 1 9.87207 16.1703 19.5924
2308 11 4.45103 19.4601 23.338
1831 11 5.62324 12.7216 20.8395
2125 11 5.01671 16.19 22.6454
2811 11 2.35904 17.9591 21.4475
1911 11 9.00342 17.8254 22.3133
2013 11 8.50624 11.0596 20.41
826 1 3.78451 11.2755 20.1141
1315 10 6.79976 11.1718 21.4585
1638 11 7.21781 11.1606 23.5057
231 1 7.48601 14.2795 21.4788
1224 10 1.14486 12.9995 21.1534
2466 11 1.87504 11.1136 21.4828
1050 10 3.50004 17.6316 23.1244
962 1 9.58448 11.4929 22.8411
2997 11 2.22374 14.5871 21.9487
2332 11 7.47895 16.22 20.0408
2575 11 7.6733 15.1252 23.9733
832 1 1.56554 11.0448 23.8359
412 1 4.4399 18.9079 20.6117
1905 11 9.78755 13.9497 21.7484
439 1 1.87868 14.7381 24.3641
453 1 0.500421 16.6584 21.7484
2315 11 5.76546 17.1099 25.9648
1256 10 6.2571 13.3557 29.1208
975 1 3.09793 13.4338 28.6819
2842 11 1.52686 15.172 27.906
2048 11 3.81449 10.4561 25.16
2695 11 4.64195 14.1356 25.2525
2660 11 7.18621 18.4245 28.7437
1264 10 9.00122 18.5987 27.6941
2676 11 9.5581 16.6885 27.2236
550 1 3.76956 15.9135 26.9526
1656 11 3.49469 17.8226 28.2064
255 1 6.75709 16.0544 27.7934
2049 11 4.89958 12.0788 28.2177
35 1 3.58143 19.0555 26.1464
2754 11 2.57187 17.0347 24.7641
1710 11 1.66789 10.8898 28.8793
1813 11 7.92997 13.5086 27.8223
1857 11 8.80276 19.4089 25.8776
470 1 5.83578 11.7947 25.8793
1030 10 1.61624 17.1437 28.4963
484 1 6.71778 19.0251 24.6906
943 1 9.00192 14.3926 25.7911
1317 10 5.75754 15.651 24.5383
681 1 9.10979 17.2733 24.7123
2890 11 5.19208 15.0152 29.2219
567 1 9.02147 17.7572 33.7282
304 1 1.91216 15.5163 32.7702
1486 11 6.74887 12.5969 30.9551
2239 11 6.91287 18.4026 32.591
1629 11 1.0627 17.2882 30.4205
1386 10 0.933412 11.9955 30.4733
125 1 6.49449 16.7044 31.0308
2730 11 4.3843 15.8429 32.563
622 1 8.33169 19.1863 30.7873
840 1 1.30845 12.87 33.4893
538 1 3.79347 18.1609 32.7002
2910 11 9.2818 10.3031 31.957
440 1 4.8046 13.5142 31.7876
2029 11 8.04707 15.1191 33.066
491 1 8.74547 12.6763 32.5839
2055 11 9.07026 16.4978 30.319
1949 11 2.3472 13.2945 31.1053
1547 11 1.2465 17.8002 33.3306
648 1 8.79263 12.0237 29.8346
1209 10 9.65367 15.374 31.8909
677 1 3.79314 10.4462 29.777
2796 11 2.53291 14.4954 34.8743
1254 10 8.86974 12.68 36.3305
2934 11 5.42366 15.928 35.6666
1237 10 0.824425 10.9867 35.9186
594 1 3.21421 16.673 36.3608
178 1 2.03186 14.162 37.5521
1461 11 1.8361 11.5777 37.6032
1649 11 7.51012 14.2108 36.3464
1561 11 1.96241 16.4053 38.5399
2741 11 4.57575 13.5366 37.8439
1058 10 1.68211 19.2817 34.7423
496 1 6.05154 12.3057 36.3771
157 1 6.43859 18.0224 35.1779
2364 11 8.89514 17.2138 36.1316
1044 10 8.68694 18.8558 37.3424
1402 10 4.54924 14.7584 34.2548
2481 11 3.62551 18.894 35.1918
2018 11 8.56236 11.4811 34.7375
879 1 6.26206 15.0669 38.1697
1732 11 8.53775 11.6536 38.0609
2071 11 2.15321 10.5229 34.5068
373 1 9.2396 15.4097 37.5288
1815 11 0.434506 18.76 36.1839
1903 11 5.40979 12.9715 34.0655
1811 11 5.24495 17.0898 38.8091
707 1 4.47875 10.653 34.2816
1490 11 6.86441 19.5824 36.7747
1010 10 4.94421 28.5719 1.71788
1985 11 4.1211 26.9746 2.85015
1468 11 6.86577 28.7592 2.11858
2430 11 1.06889 22.2299 3.26713
1266 10 5.5905 23.3868 1.38194
2632 11 3.59175 23.3754 1.03312
2436 11 1.24636 25.7306 4.20565
17 1 7.92314 26.4648 2.23903
519 1 6.76402 21.4105 3.78968
1661 11 5.40573 23.4382 3.53305
1909 11 7.88433 25.8002 4.43985
170 1 5.84178 27.295 4.76244
1068 10 1.88234 27.1345 3.05694
2952 11 1.20389 27.0719 1.17912
2437 11 9.77669 22.8893 3.20922
755 1 9.26743 20.4749 1.6112
839 1 2.97396 23.96 4.76813
2376 11 10.0007 28.0535 1.94317
1454 11 1.30528 28.8552 4.14139
1871 11 6.81808 21.6939 1.03586
1111 10 6.45674 24.4987 5.08897
2866 11 7.30827 25.9953 8.83137
1847 11 4.46813 20.7427 7.52452
671 1 1.86937 21.2799 8.33699
2543 11 4.37393 24.5202 9.55895
2468 11 2.37669 23.1112 6.88926
2385 11 7.82006 28.9975 5.86813
2193 11 4.50359 28.8672 6.37257
598 1 8.88782 23.6702 8.38552
1373 10 1.1545 24.1766 8.21877
2821 11 7.3256 22.8977 6.15871
2536 11 1.63478 26.1624 8.32301
899 1 9.25127 26.8924 6.10484
92 1 4.61308 26.832 8.18508
2182 11 4.9932 25.4293 6.1049
2163 11 9.06084 21.2674 7.85897
695 1 5.35974 23.1228 7.62782
500 1 6.6663 20.2589 7.89503
2284 11 0.883894 23.0776 9.86476
2944 11 9.90542 29.2211 8.90728
454 1 9.61045 22.5175 5.56668
3 1 0.689572 26.7942 6.19809
2087 11 8.3137 21.6142 13.5957
2267 11 8.43478 25.5061 12.7318
2238 11 2.50467 26.2754 11.5196
1537 11 2.3749 28.0943 14.185
1856 11 1.84263 21.3022 13.044
1908 11 4.8183 22.9517 12.6956
2152 11 5.44082 26.4597 13.4358
137 1 2.65368 23.7258 11.7684
1262 10 6.70478 26.0629 11.8209
1891 11 2.00147 24.6607 14.3206
1917 11 7.28304 22.8446 10.232
536 1 9.03002 27.9334 13.0289
1168 10 3.7468 21.4612 13.707
593 1 4.11748 28.0864 12.2666
1393 10 1.60542 26.4033 13.36
1640 11 9.13173 20.3796 11.0834
359 1 6.386 21.0476 11.6762
53 1 9.63769 23.0486 11.6599
2030 11 2.84631 20.1489 10.3854
1762 11 4.76294 19.8068 13.3404
1014 10 7.17634 27.6571 10.2995
1727 11 5.14035 28.3364 10.2172
1289 10 6.2319 24.5178 10.2811
798 1 4.38988 24.129 14.7273
891 1 1.07937 27.6439 10.2719
829 1 0.764873 19.7122 14.6997
1676 11 7.74389 29.2251 15.7251
665 1 4.6529 27.7489 15.3022
2396 11 7.12911 23.4572 16.1
392 1 1.9035 23.8661 16.7883
1321 10 3.1182 25.4145 18.8852
2038 11 5.263 25.7279 16.3767
2662 11 7.37538 20.1293 16.1836
2124 11 4.36878 28.3719 17.9288
772 1 1.79397 28.479 17.2304
2208 11 3.57288 21.8397 15.7092
1796 11 1.51022 26.295 18.1669
987 1 5.53621 22.0501 17.4191
213 1 9.24539 21.6502 18.5053
20 1 6.90081 29.0829 18.198
1243 10 4.94508 26.4526 18.1744
1427 10 8.2662 21.84 15.5349
1505 11 6.40378 26.1737 19.4309
2953 11 3.56216 23.5534 18.3926
2171 11 3.90732 20.1535 18.7097
1779 11 9.76709 28.2032 18.2358
480 1 7.45851 25.7095 15.0969
2144 11 9.89315 26.2178 15.5732
317 1 8.7901 26.3932 19.6297
2539 11 2.06467 20.6768 19.285
2058 11 6.84096 21.8523 19.5907
2687 11 9.74562 24.0501 19.6326
1880 11 4.80078 22.4051 22.2967
719 1 2.85726 23.0474 20.5351
2621 11 7.8928 20.8377 23.4481
2361 11 6.2826 23.7441 22.2955
1869 11 1.72336 22.24 22.6742
336 1 8.45501 22.52 21.4363
729 1 8.77264 25.8393 23.494
2958 11 6.77155 27.3334 23.0519
1483 11 6.78378 19.9148 20.3639
2003 11 3.18442 25.6818 20.9515
533 1 1.21259 26.5428 21.7661
307 1 1.00332 20.2446 21.6763
1740 11 3.35583 26.37 23.7143
499 1 5.58142 25.8661 21.673
190 1 4.54059 28.7461 24.1166
2799 11 1.6005 28.7072 21.0392
2323 11 8.27056 28.9899 20.358
950 1 3.31084 24.0503 23.4359
1325 10 8.50147 19.6715 21.7523
1263 10 7.167 29.0545 22.0743
1839 11 5.47921 20.5105 26.9185
1200 10 3.91797 21.8486 26.9502
2794 11 9.88836 27.9969 24.8685
1405 10 8.81167 24.1699 26.5333
2878 11 7.52677 25.1782 25.2543
2108 11 1.51817 25.777 26.41
935 1 7.18829 27.5977 25.545
2541 11 4.3289 23.2918 25.6233
1532 11 8.98345 22.1956 26.2657
2428 11 2.06247 20.9406 26.6294
2905 11 4.59176 27.0093 26.9154
143 1 5.74074 24.8307 27.1098
636 1 0.418447 28.6152 26.9889
1036 10 2.95893 26.9246 25.6688
727 1 2.55848 24.5482 27.9419
2302 11 7.89121 28.0754 27.9944
2418 11 7.8315 24.3794 28.3986
1523 11 2.37335 28.9226 25.376
40 1 4.29525 27.8339 29.0888
1984 11 3.88744 22.6022 28.8844
408 1 6.55853 22.7488 24.5792
2600 11 1.86967 28.2214 29.0013
146 1 4.85341 19.695 29.1388
663 1 6.4907 22.2501 28.812
257 1 0.541887 21.7321 24.9979
811 1 2.72293 21.8826 30.985
924 1 7.45899 26.1947 29.921
2490 11 4.42424 20.1021 31.3715
1989 11 9.42344 23.7334 33.1646
1625 11 6.27546 21.4797 33.8716
1157 10 6.26697 20.3958 32.2604
1029 10 5.86033 28.3839 32.6482
2531 11 0.993722 27.389 33.1882
2638 11 7.45656 21.3889 30.959
690 1 7.22433 23.2643 32.4702
1826 11 7.62458 28.1558 31.8321
2549 11 6.15189 24.5637 30.7391
688 1 2.55453 28.3869 31.5071
1008 10 4.39477 25.1279 31.5866
2790 11 3.18394 25.9781 30.2162
2748 11 3.47261 23.6464 32.6538
2538 11 4.59631 26.7197 33.065
2092 11 1.31314 21.1141 33.9589
232 1 0.534164 25.8953 30.4901
687 1 9.84188 21.7201 31.3692
1032 10 1.21609 28.714 34.7003
1722 11 8.82397 23.1743 36.3159
2564 11 4.61932 22.304 36.2942
1521 11 6.85587 25.3727 34.9245
1308 10 9.98609 26.741 37.306
1657 11 4.64785 28.0819 38.2639
1300 10 8.76634 24.6314 34.9492
2610 11 1.38489 22.2997 37.1154
147 1 5.98696 26.3852 36.8109
2919 11 6.25102 29.0886 34.541
1635 11 10.0045 20.3592 37.5025
1991 11 3.13558 25.0381 36.3034
48 1 3.34971 26.1947 38.6257
1031 10 3.10131 23.2163 37.2328
236 1 1.26173 20.1402 38.1776
2983 11 8.38923 27.8807 37.2351
645 1 4.8125 24.1168 34.7827
128 1 6.9127 21.8716 37.0799
1448 11 0.886024 27.9067 36.5518
928 1 8.50121 28.0921 34.642
2067 11 9.89506 25.4219 38.72
474 1 9.51204 21.5086 34.6168
746 1 8.56339 23.5662 38.7262
308 1 3.70993 21.4072 34.1362
89 1 1.7337 24.9906 34.1088
1963 11 6.42738 24.9624 38.7628
2894 11 9.55147 31.5452 2.47982
2670 11 1.97171 32.2046 3.74232
2109 11 7.1278 37.4702 2.45572
1147 10 7.05399 37.8895 4.43228
806 1 8.00835 30.4169 4.01867
1238 10 8.88962 33.4597 2.48631
276 1 3.60619 30.1396 4.50946
1334 10 2.86506 35.0399 3.35213
1196 10 0.610988 30.757 3.31001
2313 11 3.46381 36.6074 2.29166
2700 11 8.42859 34.2179 4.33937
777 1 6.36223 35.213 3.31116
1849 11 7.15115 33.5765 1.47836
2493 11 4.48211 33.9359 3.73054
895 1 9.42496 38.6901 2.14635
1566 11 3.89181 30.2246 2.14274
893 1 8.68783 29.8514 0.556752
2256 11 0.746395 34.5384 2.34657
52 1 5.24182 32.0981 1.92831
2533 11 5.91058 31.5566 5.06912
1978 11 3.39853 33.4431 0.499074
880 1 1.0394 32.8214 0.41684
1827 11 8.92941 38.2022 4.98272
721 1 1.99488 38.6628 2.52837
682 1 4.04927 30.2051 8.75833
784 1 9.49075 31.7618 9.19449
2024 11 2.41118 38.1055 7.5431
2091 11 6.5823 31.1162 8.25024
970 1 3.94615 34.0515 6.32442
2514 11 2.83181 32.3107 7.34133
2852 11 5.88583 34.5107 8.02502
2105 11 5.03218 38.4491 9.48499
1087 10 6.29094 33.0266 9.34041
1016 10 1.5059 33.0141 8.78106
84 1 1.16032 33.3118 5.64725
918 1 8.6843 37.3918 7.23368
406 1 3.80396 37.618 5.59226
1005 10 3.12863 37.7626 9.3947
1354 10 6.15072 30.0661 6.4017
1685 11 6.03871 36.4702 5.48814
616 1 7.70322 33.1359 6.52225
275 1 6.01668 36.1696 9.60078
2537 11 9.11069 34.9244 7.40676
629 1 0.974161 36.0376 8.10344
1078 10 0.642934 31.0334 9.45382
2065 11 2.86759 35.7772 9.71625
2628 11 9.88551 31.9421 6.50798
2292 11 2.28092 35.501 5.21449
1672 11 8.45581 37.4194 9.92341
2624 11 9.40736 35.5279 13.096
1621 11 4.83506 29.9026 14.0455
526 1 5.44729 30.3705 11.4223
1701 11 3.14846 36.6693 13.887
174 1 6.54811 33.7867 12.5745
2702 11 7.03743 32.3879 14.5444
1022 10 1.56747 33.6958 14.0983
67 1 3.57044 34.3775 11.7538
1580 11 4.75514 32.5408 10.6844
1387 10 6.85697 30.3703 14.2713
2631 11 1.15788 34.2833 12.2192
2061 11 2.14172 30.0065 10.5401
1954 11 7.78668 30.0842 12.3917
2869 11 5.80128 35.9066 12.2076
1327 10 5.15708 37.0927 13.7906
2474 11 3.73726 33.4961 14.4822
810 1 0.791097 30.0142 12.7249
739 1 8.88372 32.348 12.348
435 1 1.23414 36.8339 12.3891
2991 11 7.97275 33.476 10.4029
846 1 6.6556 38.2734 11.4015
2956 11 0.947312 31.6733 14.4769
1793 11 8.73075 38.7122 13.8647
2392 11 1.97516 38.6923 10.8379
2274 11 6.29314 31.4377 18.0333
228 1 9.18896 31.0302 15.8492
2761 11 9.53223 31.9311 18.0602
1689 11 3.42488 36.9823 17.6788
2255 11 8.65986 37.8699 18.0287
1683 11 0.538569 33.2422 18.5303
1009 10 2.46363 32.5263 18.6852
328 1 5.53015 33.7461 16.3583
1357 10 7.69367 32.76 18.5563
2400 11 3.62081 34.1761 18.01
2851 11 2.8154 30.8601 17.6764
41 1 3.10068 35.4255 15.7613
2406 11 6.23878 36.2881 15.3952
2807 11 7.53258 34.4417 17.3786
745 1 1.16921 35.6408 18.1434
712 1 8.67493 36.5132 15.28
716 1 5.85728 37.4395 17.6173
653 1 3.12521 31.3182 15.4384
2037 11 0.725462 34.9363 15.5107
411 1 7.72088 35.8659 19.5844
2650 11 5.31132 29.8248 21.7673
865 1 0.930703 38.2289 19.8461
31 1 3.60862 38.8196 21.2477
2579 11 7.57966 33.07 20.55
2984 11 2.96328 32.3443 20.6861
1832 11 1.68041 36.2302 20.8817
1510 11 8.01056 30.4687 23.2704
358 1 5.31908 32.0662 21.0469
1084 10 9.89663 29.7287 23.9384
2139 11 9.43065 35.1866 23.6942
1906 11 8.95216 37.3972 21.3688
773 1 1.78084 31.0163 22.3367
901 1 1.00353 34.1409 20.8218
2309 11 5.72989 35.8838 21.2044
884 1 3.35131 36.1542 22.7499
2248 11 4.65939 34.1066 23.1007
1960 11 3.46959 38.6558 23.7287
2689 11 6.81042 38.2028 23.6876
364 1 9.53546 34.0236 21.2474
2285 11 5.52044 37.7266 20.3134
1258 10 9.52008 38.4463 19.753
418 1 8.98129 37.4478 24.031
541 1 6.75091 35.6101 24.1646
724 1 3.56816 35.7431 19.854
953 1 3.869 29.5786 19.959
394 1 7.17677 35.6792 28.2282
2819 11 7.32699 31.3905 28.3109
2769 11 6.15936 29.9772 25.4766
50 1 4.03575 30.6071 26.2564
1229 10 6.3241 29.5971 27.5456
316 1 1.8678 37.9866 25.3115
1818 11 9.36294 36.6833 26.6922
864 1 3.23194 36.9842 27.9292
1086 10 3.57493 33.4831 24.763
2439 11 3.39353 31.0099 28.6438
422 1 1.59922 32.4497 27.0946
2563 11 1.86142 34.9602 28.545
1097 10 9.30298 34.9447 25.6637
1001 1 3.6692 33.415 28.8663
1636 11 4.66438 33.4248 26.3464
1437 11 7.55741 34.0188 26.0954
717 1 7.85544 31.6417 25.8707
1967 11 5.10345 36.8062 26.1184
1067 10 5.1877 38.4367 24.8959
2643 11 2.30843 35.3011 25.0341
866 1 9.74104 32.8121 28.0396
2838 11 7.70805 37.9622 28.9084
1926 11 2.58933 31.6935 24.6607
1302 10 1.60953 30.1607 29.162
377 1 2.98482 37.9072 31.7561
1594 11 4.51158 37.2968 29.8505
184 1 8.18049 29.7408 30.0306
2214 11 0.901774 36.6761 31.2151
1048 10 1.33014 34.8844 30.4782
2779 11 4.78897 29.3581 31.2532
2666 11 1.47928 30.5166 31.1394
356 1 8.41991 36.9171 31.5492
2106 11 5.87457 34.0531 30.2556
610 1 3.93765 30.9747 32.6728
1385 10 7.68731 33.6642 31.2405
2639 11 8.16197 34.952 32.8066
1418 10 6.08303 38.5974 30.0325
1731 11 7.74144 31.6678 31.6484
2998 11 2.79092 33.9674 31.5621
638 1 4.53624 35.5222 31.4247
281 1 5.66406 31.5967 30.1632
2545 11 6.73656 38.4254 31.943
1786 11 9.12657 34.2801 29.9781
1990 11 4.15206 36.9556 33.7285
1878 11 5.2709 32.7902 33.8967
2014 11 7.27536 31.1503 36.9177
123 1 8.39382 35.8515 38.6791
825 1 7.35638 33.4047 37.6172
2936 11 2.35768 34.4179 35.1801
1362 10 4.35423 33.5732 35.6749
2907 11 7.88107 37.2092 34.8125
702 1 0.550713 38.4209 37.5009
1846 11 7.04154 37.9881 37.8764
86 1 4.37234 35.7415 38.4418
1329 10 4.07209 32.124 37.4656
1524 11 3.08195 37.1393 37.1056
1153 10 9.14499 31.8129 36.3621
1446 11 5.7708 34.866 36.5017
1966 11 9.66746 30.7077 34.6568
2329 11 2.32281 31.1951 37.0302
1380 10 2.77453 36.5165 35.2616
2979 11 9.33154 33.8481 36.3393
862 1 4.90347 29.7976 36.4006
2119 11 1.04813 37.584 34.7362
1272 10 7.24137 38.6739 35.9827
2802 11 3.03653 29.3814 34.5245
845 1 2.17195 29.2871 38.4187
457 1 6.41884 35.5416 34.2424
399 1 7.05528 31.4456 34.5328
2279 11 17.0117 8.49887 2.25882
1836 11 14.4404 1.3567 2.46043
1988 11 10.8715 5.22916 4.62282
2865 11 15.8097 4.77511 4.15251
2560 11 18.8698 6.75867 4.38856
2777 11 12.2595 2.1299 4.565
2225 11 12.4597 5.52402 2.25888
583 1 10.9018 7.18256 3.3947
104 1 16.4851 2.38204 3.79898
1123 10 13.0183 0.435738 3.79844
2985 11 18.8641 2.73542 3.38329
2518 11 13.037 8.27287 4.25376
324 1 11.734 3.00051 2.2999
2822 11 10.4489 9.03839 1.79821
1371 10 19.394 3.83039 1.74104
1025 10 18.5051 6.99356 2.29463
2964 11 17.7643 5.13709 1.35214
658 1 14.9952 7.21701 3.06507
26 1 13.4893 4.42995 4.24358
90 1 17.4067 8.75554 4.65226
1063 10 13.3683 5.49466 0.455216
657 1 18.6878 0.959763 1.65473
492 1 18.9407 9.21456 0.866658
2213 11 14.9226 6.71495 0.663731
283 1 10.1448 6.86686 0.474312
530 1 13.7931 1.96013 6.29819
2159 11 13.531 1.38869 8.651
403 1 10.1805 1.69742 6.16155
2789 11 18.7916 9.44454 6.43424
2232 11 10.5498 7.01383 7.44297
1885 11 16.3925 2.12665 6.12256
1674 11 14.5948 6.95071 9.54782
1624 11 16.9833 5.1534 7.35042
259 1 18.2858 2.56228 8.07461
1896 11 15.5625 7.64044 5.80181
1951 11 16.5773 9.11682 8.9061
2390 11 10.4283 1.73907 9.87148
748 1 13.1611 7.13412 7.58021
1415 10 15.5455 5.62455 6.00023
1324 10 13.847 9.96621 5.38379
1652 11 13.8392 4.91185 6.74357
294 1 14.217 4.07864 9.0804
429 1 17.5586 7.64667 7.50635
859 1 11.0591 9.04697 5.74026
2781 11 13.0096 9.75737 7.31003
2075 11 17.0403 1.04564 9.58554
360 1 14.3098 9.64927 9.28739
263 1 10.4319 5.81467 9.48894
2129 11 10.299 3.84113 7.51763
2834 11 19.3915 7.10202 9.28578
2619 11 19.1893 0.608874 7.14293
1712 11 19.3477 3.98741 9.93571
1054 10 17.4473 0.431495 6.05397
1041 10 11.7763 0.436117 9.10326
860 1 17.964 4.47631 5.26227
2371 11 13.7509 6.62024 12.841
1066 10 18.2087 6.85312 13.3681
481 1 19.453 0.914148 10.7031
2275 11 11.7963 1.13726 13.0888
487 1 15.6023 5.31092 13.1345
2750 11 14.6155 0.952379 11.8907
173 1 19.2503 4.07655 12.4834
1033 10 16.3384 1.90451 11.3057
2728 11 15.8985 3.84102 11.0199
2316 11 11.4794 7.81795 10.6173
2645 11 17.1312 7.39549 11.7639
1214 10 12.9876 6.45377 10.8904
722 1 13.2311 3.12686 12.3585
2150 11 12.3013 4.59194 10.5981
266 1 11.332 7.1166 13.2156
1525 11 17.7628 1.78933 12.7353
2102 11 17.9381 4.9673 14.0617
341 1 15.3707 8.43438 13.2991
715 1 15.6104 1.36891 14.2781
1227 10 10.1337 1.65841 14.1749
1668 11 11.7354 9.65666 13.7224
815 1 10.6814 9.83927 11.645
1931 11 14.3457 3.442 14.6147
2565 11 17.5808 8.12113 14.7719
878 1 17.2994 5.76825 10.0823
1115 10 13.4516 4.72034 15.802
1043 10 18.5033 5.65977 18.9231
2420 11 13.0594 4.19857 17.6988
458 1 15.639 2.14008 18.4843
2373 11 11.1222 8.16694 16.89
1360 10 10.1324 9.29542 18.3015
794 1 18.819 9.01 17.5072
2699 11 16.7818 0.423544 16.3904
150 1 11.3213 2.64994 18.6913
198 1 11.6415 6.38979 18.6789
978 1 18.9659 0.630536 18.0195
2532 11 14.6629 6.43018 15.9175
70 1 14.9643 5.79773 18.4873
323 1 13.1707 8.27613 15.5836
2491 11 16.4038 8.79411 17.9993
2378 11 17.058 4.74369 17.8879
981 1 17.4888 6.33739 16.2932
2200 11 10.7191 1.8433 16.2529
1808 11 11.6111 5.35406 15.1452
2694 11 19.547 6.71 17.4702
1893 11 10.7113 5.84046 23.7789
1434 11 15.0706 4.04035 20.2693
757 1 12.6153 6.319 22.5065
2374 11 11.3118 9.84646 22.6091
393 1 16.0499 2.64122 22.0896
1352 10 13.322 2.9708 20.4422
2381 11 14.864 5.32477 23.443
968 1 19.3564 8.41662 20.9078
944 1 13.1597 3.3714 23.4913
816 1 17.2249 5.72029 22.6815
1467 11 18.3806 3.33914 23.2674
1170 10 11.6177 9.05862 20.7651
2672 11 13.1322 7.76466 20.3776
2967 11 16.9731 8.99313 21.9495
2872 11 17.6229 6.66994 20.3768
1686 11 11.8758 4.22883 21.361
2559 11 13.7115 1.6785 22.0287
1702 11 10.468 0.92531 24
2304 11 17.3024 1.13033 20.06
444 1 15.2518 9.05765 20.2494
630 1 10.2112 2.43885 22.0146
1733 11 15.7021 1.47781 24.1784
603 1 19.3306 1.78547 21.2588
489 1 11.8994 2.79465 28.4097
2045 11 18.7533 0.657547 25.0476
2843 11 16.7213 7.13205 25.7194
2517 11 14.0699 5.41297 26.7587
431 1 15.8749 9.38859 26.7902
713 1 18.3552 5.35146 26.1747
847 1 10.5718 5.19312 26.2427
1215 10 10.9581 1.8216 25.8255
2057 11 10.9586 7.58763 26.7404
1973 11 17.3453 3.20337 26.4982
2359 11 13.749 8.7599 28.0069
1069 10 14.9141 6.32034 25.1979
2290 11 17.6148 5.27522 29.1326
1323 10 12.6215 8.62183 26.3218
9 1 12.6703 6.8353 28.9426
2173 11 12.3687 3.27615 25.7568
149 1 14.9704 3.05883 26.8676
580 1 18.4309 9.56395 25.2786
931 1 15.7335 6.48911 28.2128
2009 11 11.4298 0.494843 27.2994
1426 10 17.4793 2.21135 24.7302
2128 11 13.765 8.03415 24.4743
2736 11 11.0525 4.87423 28.8228
1297 10 19.4609 6.03617 28.6813
925 1 19.3443 1.34721 27.3393
1653 11 14.0819 2.85818 29.2073
694 1 18.4626 3.41687 30.7556
2798 11 14.4915 5.99967 30.5632
2712 11 10.3945 4.9944 32.2861
2358 11 19.0131 4.70742 32.9114
615 1 16.5972 1.98055 33.3632
1358 10 10.965 9.84688 30.7779
1555 11 16.738 7.62917 33.2433
1488 11 11.1839 7.80753 30.6448
186 1 14.4724 0.71213 30.4595
1248 10 17.8834 9.70646 29.8559
2319 11 13.2235 3.041 32.1937
1407 10 14.5419 3.99247 30.782
478 1 16.9776 6.8875 31.0498
2835 11 16.2562 3.75075 31.8569
488 1 12.6591 6.06877 32.3717
2198 11 13.4176 8.55692 33.0501
2053 11 16.1071 8.76464 29.9676
644 1 18.6627 9.4733 33.0673
2791 11 19.2018 8.37676 30.6889
819 1 16.2 5.41845 33.8392
329 1 10.9255 1.44025 36.9778
1330 10 18.9258 3.88208 34.7989
1588 11 18.5723 1.8717 34.8376
2939 11 17.3236 4.77402 35.8094
856 1 17.3769 7.22391 35.6858
2688 11 10.9242 7.49253 34.7498
1684 11 19.1481 7.45237 37.6641
2800 11 11.59 2.50495 34.8474
1658 11 14.9158 2.02217 35.1354
2355 11 13.7392 5.11804 34.4664
1716 11 12.0689 6.46791 37.5119
973 1 11.0733 4.47766 36.2773
2918 11 15.1225 7.75295 35.8614
2793 11 16.561 1.13279 38.65
187 1 16.0223 3.27158 37.2083
822 1 13.7193 8.64287 37.464
1163 10 13.3901 3.17076 34.2831
2513 11 13.7151 3.63447 38.3813
277 1 19.2623 5.02711 37.7865
59 1 10.3082 9.95133 37.8749
1230 10 15.3001 8.70161 34.1005
2548 11 10.2828 3.10964 38.6241
907 1 10.2305 9.99847 34.3557
176 1 17.137 0.435745 36.4632
2244 11 19.623 2.64147 38.6719
2186 11 18.624 18.1794 3.23937
843 1 16.4191 17.5503 3.89157
2714 11 14.399 19.0024 4.34441
2081 11 11.2514 14.1225 3.73109
741 1 12.088 18.6467 4.18131
1020 10 16.9183 14.2952 2.61993
1361 10 10.9189 16.1445 3.48939
2369 11 15.9247 12.6025 3.17317
2623 11 15.7317 19.0255 1.1937
2289 11 15.6146 15.7963 2.28328
194 1 13.5979 14.5504 1.30724
2477 11 18.3055 14.4074 0.985769
1765 11 18.0127 14.8776 4.2841
2816 11 12.0964 12.4649 1.08553
347 1 16.3517 10.7463 1.54955
2463 11 12.6913 16.7534 2.41995
1049 10 18.8258 19.5786 1.75531
2832 11 19.5563 11.2584 3.03839
883 1 16.8351 16.9693 0.491967
1396 10 12.3987 17.6344 0.408003