ITEM: TIMESTEP
150000
ITEM: NUMBER OF ATOMS
3048
ITEM: BOX BOUNDS pp pp pp
-5.0379813686955188e-01 3.3922804858756621e+01
-5.0379813686955188e-01 3.3922804858756621e+01
-5.0379813686955188e-01 3.3922804858756621e+01
ITEM: ATOMS id type x y z
2737 4 4.10292 5.35187 2.58833
1809 4 7.01861 2.78775 2.85504
2955 4 4.14672 2.9068 2.31103
2457 4 2.65048 1.47233 1.07381
1456 4 1.21958 0.264504 3.46648
2666 4 -0.0527484 1.97897 2.08758
762 10 0.171258 0.349303 2.45364
1633 4 0.662792 0.052675 0.956827
1522 4 6.96751 1.29375 0.175649
2204 4 3.00253 3.91255 0.213739
966 10 1.88455 0.428813 0.0419125
2002 4 7.4573 7.21872 2.28436
2809 4 1.55011 6.53371 0.44062
374 6 1.4852 5.0948 2.025
2614 4 4.62135 1.90977 -0.0252306
223 6 4.85835 5.737 -0.332527
784 10 0.529417 7.45697 -0.160674
1199 10 3.57067 2.73292 0.888103
1598 4 3.7344 7.7907 2.74948
730 2 4.18004 4.12255 3.3728
537 2 6.73698 6.4243 3.18614
454 2 4.27381 6.52706 3.44928
437 2 7.58851 1.59272 3.17101
2251 4 7.30723 5.13625 3.3081
1315 4 2.91969 3.94708 4.23994
2236 4 1.13923 5.68153 4.26996
563 2 -0.0213115 7.8998 7.42055
797 10 1.80692 1.44409 7.46974
2967 4 7.50868 3.63407 5.15159
1953 4 5.32412 4.01746 4.16239
572 2 5.61442 0.657405 6.70247
2309 4 1.26493 7.28891 6.88378
45 6 5.40215 7.88831 6.01031
2187 4 4.68256 0.811829 7.79964
1434 4 1.98564 0.498476 6.36567
1587 4 3.6036 6.39325 4.72568
837 10 7.6626 2.1778 5.74013
1122 10 2.46646 5.26798 4.86563
2870 4 4.98684 0.499799 5.36907
1712 4 2.21424 5.00379 6.38631
2045 4 0.536984 2.45006 7.55261
1554 4 7.68917 1.01025 4.49572
3044 4 6.38364 1.85298 6.60079
845 10 2.10504 6.16045 7.53551
2379 4 3.01967 2.47622 7.57575
13 6 3.13118 1.47401 3.98669
1887 4 5.65455 6.87474 3.89501
516 2 6.70199 3.91254 3.82241
1745 4 2.71823 2.05116 10.6568
710 2 4.07861 2.37831 10.5355
2468 4 0.552582 1.54053 10.9076
1503 4 6.58955 6.88806 8.47014
1800 4 4.70991 2.71257 9.32591
2655 4 1.8021 0.71293 9.01022
517 2 1.67434 1.49328 10.1283
2321 4 6.63948 0.936108 12.3781
1984 4 7.53293 1.10426 9.89671
1649 4 5.50858 -0.307763 10.4925
260 6 4.7645 7.6652 9.41853
744 10 6.81182 0.286907 10.9289
1983 4 7.88969 3.94972 11.1786
2541 4 4.78223 2.37096 11.6369
716 2 4.21025 2.02298 8.18705
1241 4 1.15655 5.32266 8.51723
1995 4 2.85924 7.79592 11.0617
258 6 7.12136 3.11118 9.05326
2239 4 3.43708 6.48864 8.12224
90 6 -0.31587 3.81121 11.5143
831 10 7.94714 6.31624 8.59181
802 10 -0.441826 5.63323 8.57129
1448 4 -0.478946 -0.267542 12.1693
1480 4 -0.273148 3.9139 13.6734
2579 4 4.31263 0.701206 13.4533
1358 4 5.81477 2.62323 13.8081
1930 4 2.09174 7.98082 13.4964
2845 4 1.87903 1.38663 13.6319
2988 4 0.941261 6.01525 14.1276
2966 4 5.23134 4.04314 15.8432
725 2 5.37862 1.69266 12.7209
103 6 7.34046 0.0285683 14.7532
524 2 1.49024 7.25587 14.6822
2905 4 1.04772 4.09935 15.9207
2770 4 7.07782 6.98887 13.1467
1161 10 0.193599 4.80109 14.7525
2108 4 3.6385 2.29539 15.2646
1200 10 5.33428 2.61156 15.3566
2574 4 0.113193 1.95864 16.6946
128 6 6.46869 5.88406 15.4241
782 10 3.08912 1.07333 14.3481
2396 4 2.67723 6.76894 15.4932
1881 4 5.00162 7.5459 16.2029
2426 4 4.52487 7.6189 13.0193
861 10 3.51091 7.55302 16.5198
2152 4 2.89609 -0.0893303 15.3412
2352 4 6.10285 1.6272 16.1836
1721 4 0.588119 8.01928 15.3678
1337 4 0.362428 1.13548 18.8609
209 6 6.68584 3.14755 18.0176
1061 10 7.30189 0.893263 20.2573
2899 4 4.70405 6.87967 19.8661
1235 4 2.29431 7.00922 20.0305
646 2 -0.175364 0.99073 17.6254
252 6 4.28861 2.59932 20.6208
2031 4 1.28343 2.53899 20.6104
1437 4 1.46629 3.34898 18.1299
1067 10 1.58121 2.09352 19.21
2604 4 2.89746 1.40554 19.0506
823 10 4.92419 5.3707 20.4212
2703 4 3.4215 6.6994 17.8865
593 2 3.51845 7.36685 19.2058
974 10 0.871686 7.68617 19.7274
626 2 0.443539 3.32184 17.0876
1880 4 -0.104587 6.69979 19.0879
2881 4 5.17496 4.32797 19.3015
2878 4 7.46303 -0.335181 19.1686
1450 4 7.68938 4.932 17.585
299 6 3.16625 4.471 17.0336
2917 4 5.80558 1.03389 20.5427
25 6 1.57948 4.84608 20.7445
2923 4 8.04357 1.99644 19.6397
60 6 4.40572 -0.376952 18.5697
1233 4 7.56754 6.67358 22.814
804 10 3.47497 2.06547 24.2466
1236 4 3.3084 3.29673 25.1057
246 6 0.786356 1.03726 22.3863
1620 4 1.01715 5.21958 23.147
253 6 3.20117 5.25076 23.6103
2740 4 3.89046 2.18994 22.8375
1267 4 -0.493108 4.49228 25.2502
672 2 6.80435 5.69371 22.4159
1916 4 4.76889 7.53425 24.5436
2202 4 2.11933 1.26375 24.2397
1378 4 3.85848 4.92518 21.3564
2715 4 6.07977 4.78701 23.1933
1051 10 6.4199 4.48446 24.7538
1795 4 4.58924 0.878092 24.7247
100 6 0.765078 7.83948 23.428
756 10 -0.351144 5.03263 23.8474
379 6 4.58491 -0.0812056 22.5223
1856 4 7.94838 0.362771 21.5808
2066 4 8.06042 4.69829 24.9329
2339 4 6.39703 5.60652 21.0862
1064 10 3.00916 6.30209 27.0158
2550 4 2.94832 0.410533 26.448
2338 4 2.28656 6.08952 25.7376
2916 4 6.44292 7.86602 26.2037
2172 4 8.0455 -0.16536 28.4217
623 2 -0.323169 0.405782 26.8935
1155 10 3.12639 3.96396 29.0771
1583 4 3.06081 4.78694 27.7124
2823 4 5.3146 0.994912 27.1577
1604 4 4.37662 6.90761 26.9301
1128 10 4.50351 0.203591 26.2298
348 6 5.90131 3.19332 27.7212
1757 4 5.79401 5.63356 25.6121
2095 4 6.55823 7.33198 28.6319
2080 4 1.69769 3.20499 28.9317
519 2 5.36339 6.99506 25.7519
188 6 3.71019 0.534141 29.1591
2159 4 2.1853 7.00669 28.2218
439 2 1.77688 0.373446 25.3986
1707 4 -0.0813539 7.44559 27.2419
116 6 1.41687 3.67687 26.1942
1431 4 1.0573 0.813008 29.0592
2888 4 0.621866 0.914625 26.0112
3001 4 4.24388 2.98912 29.0899
794 10 0.993502 8.06561 28.188
1788 4 6.1137 3.18154 25.3221
440 2 4.03396 5.85934 30.7731
2805 4 4.03567 6.12274 32.0388
2383 4 2.91517 4.93602 30.268
1714 4 7.14106 0.858217 30.6047
426 2 0.675098 1.14656 32.135
445 2 7.48135 8.03551 31.2713
2498 4 4.93114 6.03971 29.756
2491 4 5.9548 1.76629 32.2323
2646 4 0.492586 5.74253 31.6813
682 2 5.96136 0.743122 31.3707
1419 4 6.92331 6.93093 30.8875
2980 4 4.99767 -0.112582 31.1974
320 6 1.82849 7.82537 31.4027
1764 4 1.15957 2.02498 31.1628
154 6 2.28478 4.4429 32.4256
2503 4 1.28619 1.38138 33.3699
897 10 5.98207 2.23073 33.6801
562 2 6.1543 6.79355 29.7702
2621 4 6.39517 3.65486 33.7477
1032 10 0.598498 2.14958 29.6833
833 10 7.78779 -0.386239 29.8539
2517 4 -0.268717 0.209054 31.9888
2376 4 7.2359 6.40873 33.902
1036 10 8.08296 7.60808 33.8932
1031 10 4.38142 8.9962 1.9801
2477 4 6.10131 12.4576 0.589172
331 6 0.427044 13.7071 2.73382
3040 4 3.61411 14.7084 0.347326
1145 10 2.64956 13.438 0.440344
957 10 6.60561 13.5871 -0.185072
1885 4 7.44514 9.69977 2.59541
2627 4 0.0112177 8.95298 3.35452
453 2 7.07644 8.50858 1.76526
2940 4 2.43293 12.9727 1.85349
1449 4 6.0593 14.9968 0.377681
1946 4 4.97749 10.0493 3.10947
554 2 4.83318 15.1924 1.172
2112 4 7.83189 8.81457 0.425377
2691 4 -0.337536 8.33882 0.918891
1210 4 4.93248 14.7828 2.50077
2098 4 3.48709 9.70114 1.01758
2086 4 5.64255 8.43526 1.25005
729 2 5.21975 15.7545 3.46986
736 10 6.44395 10.4295 3.60227
247 6 4.19455 12.9816 3.64596
2253 4 1.23388 14.2993 -0.0393596
361 6 1.66709 10.3924 -0.0965585
2021 4 1.3196 16.0327 3.02189
2549 4 6.56175 11.9242 3.70519
1023 10 0.0207375 16.4923 2.44422
2015 4 6.58851 15.8617 3.79771
616 2 7.92751 9.3888 5.7518
2848 4 0.730193 10.4126 5.06889
2746 4 5.89993 13.7702 6.54875
2102 4 4.73105 11.604 6.30852
2537 4 6.68127 9.6577 4.91258
1606 4 7.49372 9.58917 7.1591
2521 4 4.40638 14.9987 4.87054
1487 4 3.60699 9.27203 5.97978
2595 4 2.08041 12.4648 4.59692
335 6 1.8885 8.46711 4.49099
2530 4 4.08434 15.2794 7.42851
731 2 -0.39906 10.0899 4.15096
1126 10 3.73662 10.5113 6.8327
1177 10 1.36791 11.6964 5.60838
2134 4 2.20979 11.1829 6.88738
1323 4 6.04765 16.372 6.34415
1621 4 6.95183 11.9836 7.25407
890 10 5.06189 15.042 6.26909
628 2 5.64196 12.4698 7.15604
1256 4 0.101779 12.4854 6.19272
484 2 3.70641 16.6305 7.89927
1079 10 7.11871 16.6024 5.1219
790 10 -0.288498 12.8379 7.70978
1685 4 0.0797502 9.27208 7.95652
2837 4 1.98681 10.8859 10.5925
275 6 2.87927 13.5376 8.82806
1062 10 3.24183 11.0306 11.3955
1896 4 0.179748 16.5986 9.4903
398 6 -0.195606 12.0093 10.8576
1540 4 3.28689 12.2292 12.3465
2060 4 2.52576 16.0987 8.77945
904 10 7.44761 10.8244 8.14937
1837 4 6.21616 14.551 12.0311
2295 4 4.92798 12.4556 8.41939
2961 4 6.27267 10.5299 9.10085
2469 4 -0.332212 15.0206 11.2697
1786 4 4.50162 11.2593 10.5173
305 6 6.50834 10.6504 11.4605
664 2 4.93167 11.166 9.09314
52 6 0.88091 8.79847 10.2073
476 2 0.744053 14.7828 11.9605
2084 4 6.20147 8.48336 11.1848
1426 4 0.705359 13.5483 8.4925
2593 4 1.32383 13.5291 12.0319
339 6 4.41237 15.7135 11.4304
1849 4 3.89786 10.2772 8.3824
587 2 2.46064 13.2522 12.8529
2562 4 3.33275 13.6172 16.2986
280 6 1.33529 10.4283 15.951
876 10 7.05092 15.0679 13.145
1638 4 6.29796 9.37173 13.559
2029 4 0.867727 13.4356 16.4273
7 6 5.55154 14.0811 15.643
600 2 2.51711 15.4875 13.6295
1671 4 1.95568 12.7306 14.233
1850 4 3.30847 14.4011 13.1159
1187 10 2.11876 13.6868 15.4766
2340 4 1.83643 15.1323 14.9374
2261 4 3.59573 9.85104 12.4171
402 6 6.67063 9.21556 15.7027
2852 4 7.7441 13.8166 13.8934
2927 4 6.34986 15.7402 14.2744
1549 4 1.362 15.7878 12.6842
2936 4 3.37859 16.6421 13.653
1281 4 -0.493257 9.85786 14.225
987 10 6.08958 8.15636 12.6482
910 10 3.17942 8.17175 12.4749
2615 4 3.72097 8.77049 19.0359
1761 4 -0.0360735 11.2101 18.3905
2601 4 4.18794 14.9641 20.7103
406 6 4.06261 13.9568 18.5835
800 10 1.40612 11.5288 19.0044
552 2 2.65896 9.22928 18.2458
2635 4 6.49775 12.2321 19.5507
2216 4 1.33633 11.3278 20.4684
2210 4 0.195934 15.0139 18.0093
1083 10 6.45446 11.7291 18.0045
857 10 7.60068 15.8991 17.6855
1978 4 2.453 10.8259 18.1301
2348 4 1.65811 13.0802 18.6593
684 2 0.802019 13.8135 17.7462
350 6 6.1819 8.75498 19.5325
2542 4 6.28881 10.2406 17.9365
2479 4 7.71178 15.8189 19.2119
1779 4 1.24475 8.81118 18.6475
2228 4 5.54949 12.6239 17.2576
558 2 6.06699 11.705 20.7584
1361 4 6.10677 16.3274 17.2524
2602 4 7.66829 14.3995 17.0884
2650 4 3.74075 16.5511 17.4931
1347 4 0.292428 8.37794 20.9718
2520 4 2.86567 8.95375 16.7268
2773 4 7.97271 12.1085 17.6404
2640 4 1.94062 16.3923 20.6268
1890 4 4.36506 12.1131 23.6915
2760 4 3.52869 16.1039 22.7733
2091 4 0.725712 13.1432 23.7421
2812 4 2.01191 14.3728 21.9518
693 2 4.51136 11.3828 24.943
2067 4 -0.0740259 10.2604 23.6184
1109 10 0.622641 14.2368 22.759
2235 4 6.67731 11.2533 23.3243
397 6 1.71614 11.1069 22.5875
512 2 6.42791 9.97922 22.4421
806 10 4.26943 8.89802 23.8795
882 10 5.83476 12.5536 23.1578
1826 4 4.51297 10.0338 25.0433
2065 4 7.27811 8.98444 22.8283
1397 4 5.55051 12.6898 21.5835
1411 4 6.48651 13.709 23.8259
1637 4 0.0706009 15.5914 23.0672
2420 4 4.96776 9.47459 22.6112
1057 10 2.94637 15.5624 21.3617
1652 4 2.80977 8.75268 23.6146
1675 4 6.41367 10.4193 21.0317
2819 4 -0.31911 13.6418 21.5042
191 6 6.17539 16.2842 21.1257
2333 4 1.37377 15.4591 28.1745
2982 4 1.47444 9.46502 27.4692
546 2 2.34416 10.4519 27.991
218 6 6.60812 11.9977 27.318
1454 4 6.98723 14.3458 27.2784
421 2 3.66456 12.4272 27.1393
3043 4 4.61366 12.1323 26.0374
2288 4 2.64063 11.4236 27.1305
1078 10 2.9119 15.0573 27.9283
2071 4 3.16439 14.4676 29.3169
1291 4 2.99546 13.9099 26.8587
1565 4 3.74899 16.2238 27.5887
752 10 -0.181825 15.2125 27.6308
2272 4 6.36998 9.81414 27.8699
2050 4 4.39755 12.7029 28.3348
182 6 0.845812 12.6278 25.8317
2776 4 -0.224114 15.6445 26.2139
1782 4 -0.275826 13.6008 27.7951
1823 4 2.97611 10.2794 29.234
98 6 5.39377 14.9934 25.6355
1068 10 8.00011 15.4307 27.0628
998 10 6.90201 8.51653 27.5343
690 2 4.28389 13.3651 29.5567
1344 4 0.67854 8.4562 29.5576
1513 4 7.54766 9.18076 30.4485
1157 10 -0.094149 12.1362 30.9533
2847 4 6.41639 10.2277 32.4761
917 10 6.5221 14.2568 31.3659
1028 10 0.639731 14.402 32.954
1545 4 1.29376 11.7876 30.1481
2209 4 6.82104 15.6851 31.5877
2176 4 3.63887 12.5128 30.6558
1947 4 1.25094 15.4195 32.0785
3030 4 5.42771 14.107 30.2419
2191 4 6.06336 13.5133 32.6482
2807 4 7.75196 13.5469 30.6947
2405 4 6.58283 11.4309 30.1786
952 10 7.23068 10.4888 31.2587
2972 4 2.92609 10.2711 31.666
2286 4 0.527337 12.9751 32.2649
2506 4 0.998119 8.48233 33.3189
751 10 2.74312 11.1969 30.5438
205 6 4.71063 11.0052 33.799
3 6 4.91439 16.3388 29.7927
1696 4 3.02909 12.3619 33.8621
596 2 7.85824 12.2237 30.2707
325 6 3.07766 16.6588 33.7284
2494 4 4.4148 21.2969 2.33701
1488 4 0.0641998 19.4097 -0.345639
311 6 2.908 24.3086 2.72983
2662 4 4.58944 17.0027 3.3634
2958 4 7.4944 24.1238 2.12165
1390 4 3.94633 18.835 1.81165
613 2 0.404898 20.8157 -0.00152202
430 2 4.39792 17.5776 2.074
1190 10 4.07741 19.9734 2.97424
1628 4 1.20467 23.527 1.36994
913 10 0.638413 22.3652 2.26317
1914 4 0.556354 20.9921 1.46809
328 6 6.89865 21.8304 2.26544
2639 4 1.77498 22.228 3.38921
1297 4 2.68277 19.8785 3.62882
1597 4 0.325311 17.7847 1.3822
1196 10 4.75102 25.0328 -0.088033
2840 4 7.02991 18.6218 2.55931
1044 10 7.35544 25.2795 1.1531
2616 4 6.36951 24.7133 0.000547365
1906 4 3.96748 23.741 -0.176884
2407 4 4.61294 16.7359 1.00357
2706 4 6.99733 21.6765 -0.266917
297 6 4.20327 21.5097 0.12407
1433 4 0.860033 20.658 4.98997
677 2 8.0647 20.9384 5.04396
2041 4 3.29142 17.5634 6.8818
333 6 2.38197 16.9107 4.68681
2037 4 3.96333 22.2206 7.66873
1838 4 3.05976 19.9527 7.15565
2564 4 5.54966 25.1051 5.95353
2910 4 1.45559 21.9863 7.41361
2287 4 1.79291 24.155 6.28259
2114 4 1.23578 18.6649 6.33035
811 10 2.95285 21.5181 6.88171
460 2 0.437405 19.5786 5.75196
393 6 7.40065 24.5391 4.54837
1348 4 7.38504 21.0262 6.37613
2068 4 3.10484 21.6654 5.29228
958 10 0.764297 23.3854 7.2846
211 6 5.27496 19.8201 6.5738
1264 4 6.82683 18.1155 4.95826
2174 4 7.28346 20.3647 4.06581
715 2 2.43861 18.6524 7.2519
571 2 2.07031 21.0767 4.3011
569 2 6.62011 19.1215 3.84416
79 6 5.39045 23.8345 7.88534
2422 4 5.07678 19.399 4.01045
1135 10 8.07993 21.812 7.58684
1269 4 2.03348 17.3998 10.9211
1934 4 -0.216126 17.3945 11.7614
2612 4 6.23937 19.0998 8.42674
851 10 1.63758 17.1742 9.45
39 6 7.81353 22.6719 11.5464
2248 4 7.02793 20.2856 10.6631
1762 4 1.89626 18.5108 8.66264
614 2 5.28498 18.3126 9.36452
720 2 3.93962 21.6431 12.2257
2039 4 4.93512 21.0957 11.3979
631 2 5.75744 19.9534 11.3368
433 2 1.18795 17.3501 12.0727
2788 4 6.6383 24.4804 10.9982
2490 4 5.17592 18.826 10.5753
1025 10 7.45353 19.4384 9.34589
1229 4 1.22914 24.6422 11.8558
2727 4 4.69714 17.2277 8.7968
1666 4 7.30177 22.8733 8.26354
2677 4 0.841121 24.0357 8.61764
184 6 2.39998 25.1977 9.96845
2222 4 7.01616 19.3552 14.8758
659 2 3.64153 20.2355 14.214
2556 4 1.67102 18.1877 13.1831
482 2 2.93272 17.9363 13.6822
567 2 3.75557 23.5456 13.7185
2473 4 3.71018 18.8163 14.319
2671 4 2.68954 20.7766 15.1783
1496 4 3.07453 20.7921 12.9019
1272 4 7.24981 24.2191 15.6664
319 6 0.695395 21.1947 13.5121
2023 4 7.38417 21.5462 13.6353
625 2 7.6928 25.2485 14.8576
968 10 6.51724 20.3633 13.8716
2157 4 3.06963 23.1242 14.7644
428 2 2.93925 22.0329 15.6021
1658 4 4.59838 24.5661 14.0424
1746 4 5.03099 20.8932 14.2991
2231 4 -0.245941 23.2743 14.5764
327 6 5.83977 17.6402 15.1825
2995 4 3.82199 23.0235 12.4733
20 6 0.85883 24.0639 16.5324
1726 4 6.24814 19.5012 12.6211
3024 4 -0.337149 17.3672 16.0384
549 2 3.39537 21.7277 18.0486
2163 4 6.703 22.4384 19.437
1999 4 0.122979 21.0114 18.4207
829 10 0.0502541 19.4385 18.632
695 2 5.32552 19.8582 17.8669
2374 4 5.20256 24.2979 17.2136
2777 4 6.56435 20.1735 18.3571
2057 4 4.22485 20.633 18.0026
245 6 4.64219 24.6395 19.4267
1404 4 7.64139 24.2537 18.0325
2285 4 2.95623 22.2564 19.2872
1204 4 5.22007 17.4521 19.5083
2128 4 -0.229542 22.8685 19.9813
544 2 7.09952 21.5924 18.3221
285 6 2.94137 18.5586 20.2893
2440 4 7.01864 24.6387 20.3595
2442 4 1.29967 18.6883 18.4902
1356 4 6.5771 22.1997 17.0377
1383 4 2.98615 22.3887 16.9546
592 2 7.61532 23.633 19.4167
1041 10 4.97116 17.2394 18.0462
1189 10 6.59915 23.7628 16.96
1400 4 5.09384 18.6384 17.2589
48 6 1.71294 16.8645 16.9537
1182 10 3.2438 22.2385 20.8546
1948 4 4.53474 18.3377 22.6246
734 10 4.02107 17.3928 23.6711
292 6 6.71753 18.6761 24.5996
1646 4 -0.201487 23.5165 22.1272
652 2 0.301918 22.4889 21.2656
2263 4 3.8828 20.9035 21.1486
2971 4 7.09124 23.5052 23.5083
2658 4 2.11607 25.0732 24.5462
964 10 7.41505 22.3213 24.397
360 6 0.722545 16.9008 24.7266
1268 4 1.22552 19.1267 21.8368
1262 4 2.74643 17.8666 24.4587
394 6 1.68376 25.1083 21.8716
300 6 2.98021 19.9256 23.2189
244 6 5.48055 24.4017 22.5091
2125 4 6.85145 20.9942 23.8554
2234 4 -0.399902 21.1091 21.7607
801 10 -0.149505 19.6312 21.5027
2858 4 4.49459 24.7577 24.9693
2014 4 7.52265 18.42 21.4659
3019 4 1.72852 22.3259 21.4422
2792 4 2.95704 22.8782 25.0113
2036 4 3.94412 23.471 21.2593
1627 4 -0.204068 19.1023 24.7991
97 6 5.95425 19.9959 21.6035
2284 4 5.15864 16.8886 24.5417
318 6 5.8554 21.3023 27.314
1968 4 2.27083 22.2639 27.3815
2182 4 7.14374 22.6311 25.88
620 2 2.29545 23.6363 27.6761
1095 10 0.620466 19.6662 26.0618
291 6 3.72538 18.4222 26.8127
1046 10 2.72163 21.6737 25.986
1557 4 5.2644 23.2065 28.3733
1776 4 2.95869 24.5504 26.8607
1688 4 1.35579 18.5821 26.7799
1900 4 6.75801 17.7497 29.2688
2656 4 1.69389 24.009 28.8329
2093 4 5.82776 19.011 27.1278
2215 4 -0.228528 20.8142 29.3083
835 10 6.86713 18.1145 27.8265
2675 4 3.83971 20.6927 26.1337
301 6 6.23927 24.4504 26.9131
479 2 3.14347 24.3787 25.4527
1333 4 7.47178 25.1993 28.8026
2577 4 7.16287 16.868 26.8027
1398 4 -0.39869 20.5439 26.8819
1254 4 1.52679 20.7569 25.3682
522 2 4.30436 21.0554 31.2851
2790 4 7.00182 19.306 33.0985
2676 4 4.4648 19.7459 30.9748
2696 4 3.48147 21.3942 32.2831
2859 4 6.12574 24.2323 30.5676
673 2 2.14795 20.7003 32.5752
2581 4 2.66884 19.222 32.6185
186 6 1.79973 23.719 33.5956
1601 4 4.35246 17.4811 32.048
1614 4 3.71838 24.0674 30.277
855 10 3.47751 18.5708 31.44
945 10 -0.158215 20.3566 30.8493
2731 4 1.62624 24.6228 31.2272
863 10 4.94884 23.3475 29.8508
147 6 7.32128 23.3118 32.5609
1661 4 0.0913385 25.104 32.8975
1760 4 5.09949 21.96 30.6229
2766 4 1.24426 20.913 31.3797
1623 4 2.67001 18.1182 30.2656
126 6 0.470648 16.9016 30.3485
472 2 2.27885 24.6585 29.953
2695 4 1.69788 21.1998 33.8312
82 6 6.43588 17.2149 33.5692
425 2 0.261136 25.1541 31.383
943 10 7.68899 20.3526 33.8421
2133 4 7.1026 31.5481 0.676684
1521 4 3.14923 29.742 2.46152
2324 4 5.53344 32.5502 2.03465
1635 4 1.58587 30.9166 0.846308
783 10 3.51716 28.5176 1.53233
2991 4 6.3221 29.3628 -0.0351499
1192 10 0.296197 30.0277 3.55409
491 2 7.45434 30.2846 -0.176915
2349 4 3.12152 32.16 2.31724
1533 4 4.5945 27.7624 2.30409
502 2 5.84186 31.7817 0.867272
2735 4 0.944784 28.8143 -0.124157
722 2 5.07209 29.8731 -0.417106
2197 4 1.28773 31.1611 3.28464
2425 4 0.589049 26.4668 0.425159
503 2 2.26438 31.0368 2.07835
511 2 4.33214 32.7312 2.58734
541 2 5.11855 26.3667 2.32522
2729 4 3.9192 28.8952 0.0879471
713 2 1.25226 27.6417 0.483387
1547 4 2.2876 27.5836 1.38515
627 2 0.481809 29.9493 0.710892
2078 4 4.79859 31.2285 0.17656
140 6 6.93873 28.7574 1.98799
1529 4 -0.0322788 29.4159 2.01626
1380 4 6.59651 26.4834 1.85119
1355 4 4.42856 25.6034 1.37706
2504 4 5.06889 25.8135 3.61918
1589 4 4.23067 33.6946 3.58624
938 10 4.73221 26.0943 5.16344
2851 4 6.96972 31.3472 6.89196
1030 10 3.39286 31.1005 7.03331
64 6 1.47704 33.0874 4.93698
250 6 3.17595 28.8897 4.6312
1505 4 1.42467 26.665 6.64275
1382 4 4.17722 30.1522 6.22602
1804 4 4.80984 27.5339 5.55143
1979 4 2.2966 31.9831 6.49509
1846 4 5.56366 32.559 5.11684
984 10 5.95912 32.4167 6.67894
171 6 6.15676 29.0536 6.96802
2525 4 4.58526 32.229 7.52305
3016 4 0.865954 28.9746 4.43287
603 2 4.93454 33.7175 4.7518
2834 4 3.13913 25.6537 5.04405
2140 4 0.793636 25.332 4.45167
749 10 1.60795 25.5861 5.64051
3009 4 6.47604 33.8716 6.99229
293 6 -0.489264 27.7588 5.69685
703 2 2.71455 30.9847 9.66805
2390 4 2.05796 30.0524 10.5541
1595 4 4.29997 28.9237 10.901
75 6 0.206053 26.7808 8.74245
2238 4 6.54245 26.9267 10.4005
2921 4 7.59927 33.2878 11.3104
1977 4 5.98691 29.9873 9.50937
1321 4 -0.29926 33.0972 9.53763
1040 10 5.78957 25.6148 10.6877
2451 4 2.20395 27.4715 10.2653
1227 4 7.3609 27.6047 8.18261
1861 4 5.02842 26.0229 12.0897
990 10 2.66258 28.7109 11.0265
764 10 5.16211 30.3196 10.7175
1271 4 5.86769 30.6486 11.956
2441 4 4.00885 31.3812 10.409
450 2 7.42089 27.6464 9.59579
2603 4 1.93676 32.2238 9.51117
463 2 0.581307 32.1528 9.23932
2745 4 0.234982 30.9573 8.54202
1753 4 3.07303 30.3881 8.3808
46 6 3.83185 33.6238 9.12607
214 6 4.94955 32.7851 12.3418
371 6 8.01153 31.0133 9.11272
813 10 0.00766935 25.4087 12.0101
2824 4 4.70214 25.3748 9.64555
2079 4 5.04475 30.3586 15.9053
1103 10 5.30706 25.9107 13.6256
978 10 1.75478 30.7658 15.6481
1636 4 0.196244 26.586 13.0686
1588 4 0.351397 29.763 13.0941
1394 4 -0.0819193 32.322 13.4322
2190 4 4.76904 27.1568 14.3134
2771 4 1.08719 28.1187 14.6408
1897 4 4.23863 32.3122 14.4264
700 2 1.56453 29.0584 13.6288
1211 4 2.34141 30.0102 14.406
1617 4 1.9551 32.2865 15.5357
150 6 5.88049 29.1751 13.7592
681 2 3.2251 32.9858 15.4992
743 10 5.11287 31.8474 15.6792
2597 4 7.41094 28.8251 15.2589
765 10 0.771048 26.6667 14.5682
1464 4 6.85563 25.6967 13.7387
2385 4 2.34952 28.418 12.5566
1544 4 0.0985281 30.794 15.4145
1609 4 6.52076 32.4125 15.6337
2670 4 1.85229 25.6765 14.9495
856 10 -0.357144 30.8705 13.9485
1253 4 4.08831 32.632 16.6829
1497 4 8.01585 26.3902 15.7322
1992 4 -0.458622 26.4602 15.5014
329 6 3.76911 25.4498 15.9964
353 6 4.84569 28.1247 16.5117
841 10 0.162832 28.4694 19.3215
955 10 2.36335 26.576 18.7521
2882 4 0.704461 33.0795 20.1169
2064 4 2.99668 26.0202 20.0177
74 6 7.3757 30.4996 16.9655
1343 4 1.74537 28.1337 19.0903
2928 4 5.87087 32.2134 19.3527
3045 4 3.3309 26.9638 17.646
1759 4 1.15114 25.7308 18.2371
1084 10 7.56568 26.1318 20.6826
2205 4 4.65482 29.0157 20.0396
2085 4 0.464367 29.8616 20.1383
1112 10 7.26601 32.5698 19.5094
2617 4 6.42889 28.7162 18.2571
2030 4 -0.412628 27.3812 20.2805
36 6 3.12901 30.1143 18.781
916 10 1.96742 32.7649 20.9495
2214 4 3.06129 32.0533 20.2218
1012 10 6.15035 28.6587 19.7835
1645 4 6.24463 27.0305 20.2425
1225 4 2.05591 30.0074 16.8728
1543 4 7.07594 29.4621 20.6899
295 6 3.64002 27.7274 21.8739
1124 10 4.90103 26.3203 24.8334
1870 4 5.1052 32.1709 23.0954
2749 4 4.6835 29.681 23.1965
2716 4 1.71028 33.352 24.8979
1894 4 2.89562 31.3347 23.8902
2151 4 1.30602 31.4308 21.8192
1990 4 5.10254 26.5947 23.3268
384 6 6.70004 28.246 22.9133
906 10 -0.0500989 30.7459 21.3128
1132 10 4.4975 30.9871 23.8301
2356 4 7.74611 26.1713 22.173
1740 4 1.95533 27.149 23.1836
1176 10 2.09545 26.6927 24.6212
2682 4 2.30866 33.8138 21.9165
903 10 2.00232 31.8645 25.122
1932 4 7.72843 32.3997 21.1008
149 6 5.01865 31.0949 21.1213
1438 4 -0.423202 29.7997 22.4447
1365 4 0.749593 31.0687 25.1961
2529 4 8.05527 33.8226 25.3024
1363 4 4.86958 33.1336 26.1703
582 2 4.31139 31.6414 26.4372
814 10 0.00371848 29.3609 28.974
2976 4 1.2078 28.1588 29.0036
2243 4 1.21921 27.3293 25.6755
2330 4 7.86941 29.6445 28.4391
1581 4 0.790169 30.7115 28.9495
429 2 4.32434 31.6704 28.7639
88 6 7.36958 32.1124 27.0211
1304 4 1.72868 33.0248 29.3125
315 6 2.45241 27.0148 27.4406
1875 4 4.90032 31.2422 27.6309
2362 4 3.22562 30.9565 29.2643
1406 4 -0.120879 33.6659 27.598
2372 4 2.82473 31.7024 26.4314
405 6 7.65261 28.3288 26.5971
2678 4 6.17769 26.537 25.6473
427 2 0.45882 33.8842 28.983
33 6 -0.34274 29.0773 25.4628
1563 4 3.61301 27.1155 25.3328
2018 4 4.95547 30.8624 25.3622
1863 4 4.65746 32.8617 29.3471
2814 4 2.49765 26.1213 29.5438
2827 4 4.5398 26.07 33.288
497 2 5.43427 30.6418 31.7063
196 6 0.556572 29.4598 32.269
1822 4 4.95948 31.9664 31.5392
1478 4 5.57178 26.6862 29.9354
1309 4 6.48208 30.0722 30.9648
2194 4 2.24429 27.9622 31.3376
336 6 2.82479 31.7283 33.4456
2040 4 1.6779 31.4477 31.2917
2224 4 0.218735 26.553 30.7049
483 2 5.37972 32.9833 30.6744
1974 4 4.74345 29.8072 32.5598
1962 4 7.96531 28.3512 32.0746
844 10 1.85471 31.6043 29.8215
2797 4 6.85521 32.9281 30.3196
180 6 4.5455 27.6321 31.8638
808 10 1.60177 27.1988 30.2515
577 2 7.71014 29.8986 31.704
2654 4 7.68647 26.0765 31.2113
933 10 6.68157 25.6895 29.9723
2589 4 7.9104 30.6025 32.9138
2312 4 2.73934 33.758 33.9173
3018 4 -0.460262 33.4041 30.0025
1293 4 13.2013 4.5726 -0.2976
306 6 14.6966 4.22074 1.31003
2795 4 14.8553 7.2109 2.36617
2423 4 9.69713 7.31117 -0.197233
639 2 14.8724 7.68803 0.966402
1704 4 11.7412 -0.277986 2.07533
515 2 14.0461 7.62414 3.31695
1956 4 12.696 3.55254 2.47299
2684 4 15.8393 4.20049 3.3011
2245 4 13.9882 0.291239 1.00032
1006 10 10.4237 6.81316 1.19955
270 6 11.2681 3.37236 0.55891
414 6 8.34766 4.54747 0.129504
2874 4 16.2977 7.80209 0.56872
1755 4 9.91763 5.44441 1.58551
1568 4 11.9306 1.25336 0.0323071
2686 4 11.8818 6.71412 0.677458
2536 4 9.18591 2.52841 0.438235
1102 10 8.51457 1.21252 0.632215
766 10 12.4283 0.0564134 0.789413
2257 4 9.00365 -0.150655 0.110211
2461 4 16.3696 -0.409843 0.756546
2329 4 14.2348 6.76893 0.165594
2146 4 12.6209 7.51459 3.20899
2628 4 10.4453 8.02877 2.2604
2799 4 8.26856 0.923431 2.20578
3029 4 15.1286 -0.499627 3.07574
836 10 12.9457 6.1066 -0.426019
2793 4 12.0231 2.61712 6.78973
2096 4 13.0555 0.517124 6.24013
718 2 15.2885 4.1206 4.58209
1709 4 10.1858 6.24794 5.90823
1920 4 12.7267 2.06707 4.46523
727 2 12.4657 -0.211323 7.31607
1237 4 13.8037 4.38243 4.65834
1727 4 15.923 5.09872 5.54499
107 6 10.215 3.96844 7.23478
1556 4 15.4754 2.70655 5.1429
11 6 12.5928 6.09403 5.49018
2947 4 8.83821 2.07772 6.64419
911 10 9.55473 7.50528 6.45743
588 2 12.6176 1.78022 5.8657
1285 4 8.20319 7.91804 5.7344
1750 4 9.23716 7.28648 8.02101
780 10 12.6103 3.60985 3.91186
1591 4 11.4054 4.27214 4.54408
1027 10 15.1138 7.99877 7.8033
2445 4 16.0222 8.09904 6.43291
1311 4 14.4213 7.94628 4.60457
1790 4 8.19268 5.01245 7.91697
264 6 9.51868 5.27754 3.87347
1747 4 10.9152 2.84021 9.02943
49 6 15.5916 0.570582 9.73247
2282 4 13.3501 2.37102 8.6116
1076 10 8.92503 5.03796 11.1002
1500 4 14.8882 2.44773 10.6367
2751 4 10.399 4.61546 10.6902
2411 4 14.691 4.49616 9.36562
1615 4 10.5841 2.28325 11.3236
1325 4 12.5955 3.69853 10.641
1724 4 8.49931 6.32477 10.1368
1263 4 11.8425 8.06278 12.3196
525 2 11.1244 3.29278 10.3824
490 2 14.1218 5.82617 8.94168
1125 10 13.8065 3.19073 9.81193
2583 4 12.3507 0.462448 12.0001
745 10 10.9504 1.04115 12.1569
2642 4 9.85278 -0.0914374 11.6724
167 6 12.2602 5.81286 11.4913
76 6 9.14832 0.289742 8.29265
2082 4 12.981 6.26364 9.31675
442 2 11.9016 2.08921 8.20177
166 6 15.9674 4.46228 11.7307
111 6 11.8093 8.03987 8.50703
2047 4 15.4092 -0.481967 11.8075
1892 4 15.2141 6.47941 8.19239
1805 4 11.7383 0.660621 8.2148
475 2 9.00509 7.04329 15.9346
1374 4 9.16522 3.07978 14.8028
1834 4 14.9214 5.14004 15.3503
2780 4 11.3595 2.36029 15.8384
56 6 12.6449 7.58634 15.7363
388 6 10.3429 4.85201 14.4919
2892 4 14.0893 5.03607 13.0178
645 2 12.8511 2.22299 15.6706
2357 4 10.5976 1.3583 13.6159
926 10 10.0423 1.87372 15.1219
1296 4 13.292 0.760302 15.2274
1043 10 13.6451 4.71945 14.4675
1242 4 13.3646 3.12843 14.6335
1322 4 9.45398 0.739314 15.892
2249 4 12.3962 5.44211 14.913
2782 4 8.9387 6.50202 14.6365
521 2 8.5133 6.96086 13.1952
14 6 14.2829 1.62169 12.9958
2575 4 9.13339 5.81394 12.4458
2131 4 16.3374 2.65237 13.326
617 2 15.2852 5.43551 16.6775
363 6 12.9695 5.28472 19.1485
1534 4 16.3616 7.50132 19.0333
2402 4 14.9921 6.96249 16.9175
870 10 9.67845 7.24033 20.2621
941 10 14.6448 2.97484 17.6583
3021 4 12.9555 7.39988 19.3063
1574 4 15.9739 -0.357825 18.6181
1141 10 15.9971 7.98532 17.5434
918 10 9.07569 5.32772 17.9798
1498 4 14.5596 2.71698 19.1038
1972 4 8.90542 6.36641 19.1868
2997 4 10.534 -0.496636 18.373
1940 4 9.96258 4.16946 18.3146
24 6 10.656 1.86925 18.1238
1318 4 14.6786 4.63755 17.6021
2075 4 11.5125 0.944414 20.2174
914 10 10.9187 -0.42015 19.8426
273 6 13.6617 1.18097 20.7121
2524 4 13.2387 2.56567 17.062
2841 4 15.7734 2.33604 16.9068
210 6 9.77559 3.44981 20.7241
2371 4 15.4798 5.83036 20.7998
1772 4 9.80849 6.17367 16.8053
997 10 16.5259 6.91856 20.531
2733 4 8.45258 8.02711 20.9067
2335 4 11.5025 2.20978 24.1154
954 10 9.07258 3.73559 24.0502
795 10 15.7598 3.24993 23.0076
2759 4 9.04192 2.24332 24.6384
2763 4 14.1906 2.84494 22.3194
2918 4 10.4208 0.121985 24.5449
2099 4 12.6805 4.31676 23.741
2736 4 14.3077 -0.214811 23.8436
561 2 14.7326 5.65286 22.1176
47 6 12.0076 6.92268 22.7938
2653 4 15.8736 2.59014 24.4034
2316 4 10.3872 4.3944 24.449
1332 4 13.4529 5.12585 21.6583
1228 4 8.81927 3.73595 22.6066
1570 4 15.8417 0.540411 21.9765
1094 10 12.9872 3.80937 22.2202
496 2 8.16739 7.96687 22.4258
698 2 11.6587 3.60806 24.4719
2849 4 11.9802 3.23069 21.3329
2447 4 15.5625 4.83876 23.0559
2546 4 14.4267 6.85803 22.7733
1785 4 10.6115 6.44417 21.069
494 2 10.4454 1.51616 24.824
2116 4 12.2644 7.19642 25.1754
1868 4 9.42044 8.10215 23.2063
1728 4 10.8777 1.56558 26.3904
1377 4 12.1686 3.56992 25.9294
874 10 11.7819 2.65055 27.0546
830 10 14.3063 7.00474 29.3
1101 10 16.3788 5.37374 27.9931
2350 4 16.0647 4.2747 28.9195
1460 4 15.941 5.32032 26.5282
226 6 12.5718 -0.0276513 28.7447
2649 4 9.379 5.59906 28.1964
2744 4 10.87 3.54384 28.0102
1295 4 12.9853 2.0748 27.7351
1683 4 15.7182 6.8014 28.5485
2269 4 13.485 5.8999 28.7673
826 10 9.39728 3.97178 28.5347
602 2 10.1146 6.35609 29.1678
2753 4 16.3069 0.259218 27.4221
2244 4 14.9803 0.588512 29.4769
2446 4 10.349 7.69948 28.8916
160 6 14.1418 1.11082 25.5551
347 6 13.5313 5.46909 26.0427
31 6 13.6499 3.7367 29.4635
691 2 15.8588 -0.345871 28.7388
1538 4 8.28996 3.15375 27.9569
67 6 8.16283 1.38374 26.6662
174 6 8.67485 7.03047 25.3281
1055 10 10.5928 4.51488 31.1045
688 2 15.3514 7.75883 31.5977
2129 4 9.5002 3.7708 30.0864
3004 4 11.4803 0.549183 30.9063
1405 4 14.672 0.197644 32.029
1951 4 10.4629 5.98236 30.4352
2689 4 14.7262 6.73357 30.8012
1703 4 16.1411 7.15065 32.5503
2880 4 12.4657 6.68284 32.7087
343 6 12.6792 2.08825 32.2358
1818 4 10.0595 4.61575 32.4691
928 10 15.1874 1.12045 30.9566
193 6 15.9785 4.49563 31.8565
1412 4 14.6294 2.49764 31.1143
1319 4 11.9608 3.88045 30.9455
879 10 11.937 12.3227 0.878862
37 6 9.00418 11.5221 2.20544
1328 4 12.055 13.0406 2.24291
2673 4 15.4839 13.1427 1.97687
2869 4 8.1451 13.6661 -0.228419
1697 4 10.6139 11.6872 0.643991
1387 4 9.66801 13.5059 3.19231
2240 4 11.079 15.2601 1.86611
2097 4 13.078 11.1886 1.17163
915 10 14.0561 10.2546 0.246154
2887 4 14.2978 9.03735 1.09056