ITEM: TIMESTEP
150000
ITEM: NUMBER OF ATOMS
3000
ITEM: BOX BOUNDS pp pp pp
1.4840184253914401e-01 4.1127799687426531e+01
1.4840184253914401e-01 4.1127799687426531e+01
1.4840184253914401e-01 4.1127799687426531e+01
ITEM: ATOMS id type x y z
1535 11 2.7552 0.341925 4.74832
678 6 0.469492 7.16565 5.16942
2737 11 2.09606 6.70168 0.43353
1939 11 5.34082 6.94069 2.66141
590 6 7.83911 8.11788 3.08615
1516 11 8.09101 4.85253 3.41026
1128 9 5.93611 5.11889 3.32354
285 6 2.86453 5.32326 2.70328
681 6 3.46705 1.13961 1.8517
1407 9 8.71171 10.263 4.8896
2293 11 4.89658 3.44396 2.66971
736 6 7.53482 1.95436 3.00136
2091 11 9.39615 6.74331 1.11269
1923 11 0.813014 2.82508 3.196
1062 9 0.913491 1.22038 4.62361
683 6 5.0765 9.98896 3.69145
1787 11 9.84965 0.574824 2.45626
1182 9 9.14558 1.0433 0.496712
1025 9 0.67237 4.00806 5.0745
2139 11 2.32388 9.21628 4.70768
2507 11 1.31494 0.180566 0.376627
1596 11 5.28262 5.1274 9.40415
2472 11 3.61939 9.28022 7.82485
1184 9 7.78405 4.45345 5.5832
73 6 0.487559 9.51139 8.27688
821 6 2.4732 4.70346 7.97329
1690 11 0.412192 6.62331 8.41802
409 6 8.37877 7.83948 7.94085
2699 11 9.0776 5.29548 6.94335
2168 11 4.11977 2.21376 8.63769
2859 11 7.91589 0.957735 9.92595
2039 11 6.8716 8.0318 10.263
153 6 1.19516 1.42084 9.30731
502 6 7.44864 3.3971 8.71696
2187 11 7.19744 8.81581 5.61332
109 6 4.25612 7.3648 5.89493
1602 11 7.83989 2.27792 5.71607
1791 11 0.65417 2.35521 6.54646
2059 11 5.69961 5.02421 5.64296
362 6 4.72944 2.06821 6.1108
2824 11 2.41551 5.16677 5.37955
2485 11 7.74519 3.84544 14.8862
982 6 9.38507 8.26479 11.6137
1689 11 4.11841 3.82642 15.0231
808 6 8.234 2.29499 12.5256
973 6 4.30212 3.69088 11.5856
1097 9 7.85093 5.35198 13.2619
2076 11 3.51831 8.0186 13.3694
2344 11 8.38774 4.81452 11.2001
2149 11 5.73834 5.81444 12.6823
1842 11 8.74463 6.97611 13.9585
869 6 6.35174 9.05289 13.2801
2886 11 1.81319 2.0735 12.2773
1932 11 1.62142 5.4578 11.4352
886 6 1.43253 6.32176 14.201
2664 11 9.73976 0.943481 14.9337
1107 9 0.450914 3.54932 11.9071
1131 9 5.96916 2.63344 14.9264
2317 11 5.72783 1.67033 12.9889
1001 9 2.41868 9.7506 12.9969
519 6 3.66492 8.00144 10.5106
1644 11 0.933901 9.87026 14.8169
503 6 0.228193 0.92625 14.2606
2676 11 1.50981 9.9661 11.1393
1154 9 6.58747 6.06932 10.6559
139 6 9.28308 9.06035 15.3509
209 6 5.40635 6.3371 15.4464
1161 9 7.06343 7.67376 17.814
2576 11 1.17651 2.63901 16.3855
1250 9 2.96003 3.9408 16.867
2299 11 8.57006 0.410543 20.5077
2734 11 5.96477 8.75042 19.338
1538 11 6.32186 8.72659 16.0394
123 6 4.11631 6.13158 18.978
2425 11 0.187065 3.41832 19.8286
526 6 9.5598 5.47808 16.5898
2808 11 2.21403 8.74191 19.2863
1658 11 2.17488 5.98813 16.805
2234 11 6.65403 5.61794 17.7778
2439 11 3.71048 3.31964 18.621
373 6 8.70711 0.984098 17.6494
381 6 3.17718 8.68791 16.3387
2469 11 9.12506 7.87662 18.201
2642 11 4.88347 0.440307 19.8524
2493 11 6.03822 1.3427 16.5676
702 6 6.35855 2.94681 18.8119
2219 11 9.8911 3.26588 18.8854
200 6 8.37261 5.84957 20.1907
516 6 3.53723 0.721522 17.3747
1176 9 0.260928 1.89275 18.3175
562 6 9.05178 9.65184 20.2191
2510 11 7.55314 7.68425 22.135
2252 11 4.8322 5.87748 25.4898
2674 11 1.13513 8.44765 22.5084
521 6 6.80197 4.90934 23.8716
2170 11 3.19107 2.27895 23.5861
2923 11 7.44407 3.5886 21.3051
1998 11 0.385461 1.51609 25.2438
215 6 2.54021 6.79041 24.3502
1204 9 2.86847 8.40303 21.2786
1390 9 5.74961 8.14071 21.3421
947 6 6.50499 1.11125 21.9107
2665 11 4.15418 6.67281 21.6683
1405 9 4.20794 0.988849 25.0061
659 6 6.26496 8.72867 24.5144
19 6 9.10756 1.18649 24.0764
1106 9 1.63311 0.621441 23.8833
1901 11 4.40467 9.68581 22.1778
2383 11 9.13093 6.3927 25.4743
2042 11 6.15566 0.433567 24.4569
772 6 9.78243 8.47738 23.6913
1361 9 9.22443 2.41864 20.733
301 6 2.0613 1.51639 20.7656
4 6 2.71193 10.3637 24.6519
2397 11 9.48143 10.1861 25.7098
1105 9 4.27505 7.32772 26.9406
2258 11 4.40449 5.92363 28.7031
2104 11 6.97601 1.20831 28.7753
675 6 9.49194 1.91991 28.1501
520 6 6.11412 3.75712 27.6356
1937 11 10.011 9.23358 29.045
1814 11 9.65345 4.71991 28.4812
2448 11 5.74615 8.77359 27.0609
1607 11 3.93553 1.89594 26.9231
1824 11 0.367914 4.90336 28.0206
531 6 2.29456 4.65995 30.2272
382 6 8.02105 7.19279 28.1301
1614 11 7.26923 5.54088 30.3537
1444 9 9.55491 4.56127 26.3516
259 6 3.00965 8.34495 29.537
1349 9 5.43931 6.48582 30.553
423 6 1.40483 1.62736 27.9459
1915 11 2.41162 8.33158 26.7547
1061 9 7.40153 0.466487 30.6151
620 6 0.818144 10.1253 28.3531
2363 11 0.476076 7.46727 30.2344
2501 11 3.07988 2.06134 30.3861
2082 11 8.15499 3.24653 25.8041
1646 11 5.53991 8.52876 30.7018
469 6 2.15994 3.73633 25.8594
202 6 6.67121 4.37926 32.7734
2539 11 10.3051 10.1032 33.306
2944 11 2.0419 5.30899 35.0655
2549 11 8.09622 7.2904 33.0892
2218 11 5.13135 6.59877 35.6971
1660 11 1.96867 9.27142 32.8474
615 6 1.1818 6.3487 32.764
1440 9 9.12223 8.77051 34.384
1264 9 9.61068 5.89837 33.8924
2499 11 4.16343 5.65802 32.3767
667 6 5.34183 8.15005 33.3233
1268 9 1.38705 1.95194 31.6177
2942 11 1.96193 1.04195 33.601
1447 9 3.99838 5.05084 34.514
2400 11 4.72486 3.16664 34.9827
1501 11 0.334627 3.75341 31.7331
2325 11 8.5351 4.38735 34.7983
2135 11 7.42856 1.75798 32.2265
907 6 9.16737 1.6064 34.7072
770 6 4.48621 1.52371 32.8676
263 6 9.88514 3.21612 31.3218
797 6 8.25418 9.2326 31.0995
375 6 1.118 7.78681 35.7722
2579 11 7.73754 9.66453 35.6061
2415 11 10.3682 7.32947 35.4571
961 6 0.189117 3.26544 34.4875
1417 9 2.29104 6.76129 39.3727
2291 11 6.64689 6.17324 38.786
2372 11 0.458682 7.15899 38.3857
2728 11 9.91814 8.15869 38.8044
2150 11 7.88949 1.93976 37.6178
1709 11 3.93949 1.79973 39.7142
773 6 6.61694 4.08992 36.4805
1040 9 4.75562 6.55941 37.8897
2874 11 3.76267 8.34175 38.8164
304 6 5.4589 3.67926 40.741
114 6 7.49268 9.36003 38.3133
1042 9 9.30134 2.62385 38.9328
1508 11 3.45942 5.01911 38.7265
164 6 8.97419 5.7766 37.3859
580 6 2.88085 1.97302 37.0606
1110 9 9.27314 8.40827 40.9096
2347 11 8.37123 3.00408 40.9201
506 6 5.08352 9.91804 36.6717
418 6 5.05536 7.27084 40.9424
2989 11 7.33147 9.33518 41.0185
1284 9 10.1592 16.2909 1.71429
1329 9 9.09489 18.7525 2.75202
2538 11 2.66028 17.9478 2.49815
504 6 8.07031 13.5479 3.37336
2941 11 5.3437 14.0568 3.11229
1324 9 3.65982 13.4543 4.47826
2487 11 5.5737 17.9004 4.20804
2459 11 8.57899 20.2798 1.38162
235 6 0.934162 14.9326 1.73695
2526 11 8.17686 16.8487 2.28071
2550 11 4.7831 11.069 0.876578
1 6 4.52599 16.3074 1.79402
761 6 5.47167 19.2829 1.68145
1727 11 8.9787 19.3265 4.7946
1468 9 4.0765 12.9786 1.6792
1051 9 1.73219 18.9961 0.987452
2143 11 2.24531 12.5975 3.01694
2927 11 7.91487 10.8323 2.97387
495 6 0.688172 10.4406 2.94825
875 6 0.225792 17.9311 3.52783
2641 11 3.2381 14.2707 0.223215
2307 11 4.49753 19.2296 10.0524
2449 11 6.5763 16.4942 9.69822
2328 11 9.06913 12.1041 5.91182
498 6 8.37176 13.1955 8.28438
2280 11 6.91206 18.9084 7.32416
650 6 8.83638 17.0532 8.36036
1379 9 7.37072 17.8958 5.32666
2740 11 3.7534 16.908 7.66267
11 6 5.73407 15.5364 6.44051
2892 11 2.78505 20.5417 6.99876
874 6 1.68239 20.0026 9.75725
374 6 2.34478 14.6338 8.03493
2962 11 4.52381 11.7446 5.52508
2084 11 10.1044 19.6062 8.39519
1574 11 1.67044 11.8806 7.34517
2111 11 5.32225 13.4541 8.39258
1087 9 5.24577 18.0313 8.57488
2742 11 8.66078 10.7804 9.43103
649 6 2.7136 18.1574 5.53503
410 6 6.19666 10.4602 7.85284
1011 9 2.85204 10.5082 6.30284
2559 11 8.26707 16.1065 5.72751
980 6 3.17803 11.6381 9.68976
1488 9 5.75254 14.4837 10.2024
2712 11 2.73249 15.0448 5.31486
720 6 5.40934 20.4429 5.67958
2937 11 3.38912 11.6901 13.6328
1677 11 4.06182 18.0303 13.2019
1160 9 4.94667 17.0405 14.7828
2151 11 9.27331 18.1478 11.3436
914 6 9.82059 12.5037 14.437
845 6 2.50353 14.4196 13.4735
2774 11 6.94734 17.2615 14.8052
734 6 3.14199 16.8447 10.7078
663 6 6.57653 18.6513 12.0659
1989 11 4.13748 14.6166 11.5137
727 6 0.97991 18.7588 13.1512
2370 11 7.74891 13.6884 11.0879
2075 11 5.51389 10.9317 11.1798
2541 11 8.3819 10.9406 12.9596
1498 9 7.51399 11.5169 11.0198
618 6 5.83962 13.239 13.4517
507 6 10.2358 15.5315 11.2286
2865 11 4.49197 15.0184 15.3225
905 6 3.5868 20.3088 14.1853
1819 11 0.773972 14.0696 10.5101
1974 11 10.3077 15.3734 13.8888
1392 9 9.48554 19.9299 10.4382
2920 11 0.201384 15.8373 13.5092
2133 11 9.39523 20.5528 14.7943
1272 9 1.91331 11.6492 15.2802
2453 11 0.458663 17.5908 10.5891
2981 11 7.74503 11.8624 19.312
2967 11 2.42578 18.8562 19.2596
1622 11 4.34298 18.2348 16.6661
544 6 6.3224 15.4307 17.3398
818 6 6.95552 19.5951 16.1711
1135 9 9.45871 18.0525 18.6309
2249 11 3.11766 11.22 17.2041
408 6 2.94748 14.1098 17.3979
2262 11 7.68951 13.1204 16.1917
2088 11 1.24078 19.4213 15.7334
2014 11 8.03292 16.5761 19.0154
2934 11 8.3755 19.7953 18.3072
160 6 9.18116 15.4704 16.2954
1207 9 8.95474 12.496 17.8035
118 6 5.49824 18.1952 19.2664
1665 11 1.30345 16.4333 17.5359
1123 9 2.1831 18.2881 17.157
1325 9 2.44687 16.5281 19.4811
2619 11 4.3171 15.7613 19.3039
1096 9 2.03668 10.9123 18.9585
688 6 6.02848 11.1047 17.3485
2015 11 0.873874 13.3961 15.543
2313 11 10.3679 13.9952 18.5522
55 6 0.280474 13.7863 19.6065
2724 11 2.45234 12.281 20.4935
1435 9 5.09661 19.1259 23.1537
1968 11 10.3895 15.8265 22.545
850 6 0.722187 12.7722 22.9395
2695 11 8.03043 13.4873 25.0113
1428 9 6.43364 12.9582 23.6477
1942 11 7.67861 16.7326 24.7237
642 6 8.84937 13.7193 20.9342
355 6 7.76394 16.4941 21.8251
877 6 1.33807 16.558 24.8948
2010 11 7.08668 11.0384 23.1267
1979 11 1.39225 15.9171 21.2643
2555 11 3.80671 17.6171 23.8435
1404 9 8.9449 11.5439 24.1668
1963 11 6.36086 14.1615 22.0092
2144 11 4.57642 12.8611 24.6123
2077 11 6.63505 18.7639 21.7811
866 6 3.91481 15.4798 22.0709
1654 11 6.05799 20.0846 24.866
1697 11 10.3885 12.0114 22.8232
250 6 5.1964 12.0547 20.7849
543 6 7.88493 15.5897 27.2745
357 6 4.44781 11.3938 27.2213
2250 11 1.09375 15.1095 30.4114
274 6 7.38789 19.8173 28.9317
287 6 5.11536 15.6026 25.7932
612 6 5.44921 16.8693 29.8166
2432 11 2.7407 11.2604 30.0161
2818 11 2.80941 16.5494 27.9433
2407 11 5.92321 17.868 27.4445
1731 11 6.07029 13.44 28.1568
1101 9 1.79645 16.9658 29.7365
417 6 10.3252 13.8515 30.7663
672 6 3.85649 18.967 26.6584
998 6 8.73891 11.8054 28.0011
1907 11 9.18389 18.7563 26.9056
2744 11 2.08555 12.5031 26.2822
2649 11 8.10591 15.5308 30.2727
124 6 3.29825 13.9214 29.3089
2648 11 9.64362 20.0817 30.7389
1374 9 6.82106 13.7734 30.1266
1402 9 7.15945 18.3712 25.915
2572 11 7.9805 12.048 30.6167
1595 11 1.61661 20.4991 27.0138
1996 11 10.2528 13.8604 27.465
511 6 2.25107 18.2677 35.6873
33 6 9.9553 17.2419 31.2921
1858 11 2.33635 12.5824 33.121
1326 9 1.44048 11.0636 31.6772
44 6 5.82549 19.558 34.4436
2516 11 6.36061 18.6651 31.8421
1190 9 9.74467 14.8313 34.87
2025 11 5.25215 14.1991 31.4754
359 6 7.94863 11.599 33.3354
1671 11 4.69629 16.8941 34.6659
313 6 6.97309 16.2263 32.8323
685 6 3.00358 15.8366 32.6994
1255 9 7.94763 20.0515 32.1591
2687 11 9.32141 16.5875 33.9737
2757 11 5.0294 10.8404 33.9562
2119 11 8.11907 13.5925 35.2891
528 6 5.02642 13.5832 34.7405
1118 9 2.96856 10.7158 34.217
950 6 5.24125 11.1837 31.2424
2851 11 8.59866 19.9283 34.2011
69 6 0.868089 19.3235 32.7396
1707 11 2.93233 18.0445 31.0696
2001 11 0.57167 16.5324 33.7187
2517 11 2.99485 20.4311 33.7481
660 6 9.99957 11.6113 35.8176
6 6 1.35526 13.2787 35.9456
2069 11 3.90021 17.8337 37.8915
879 6 5.57596 14.7331 39.7343
708 6 8.49151 18.1304 40.6665
180 6 8.59029 18.0277 36.105
204 6 3.29958 11.8317 38.9321
1651 11 6.99959 19.6179 38.2874
1854 11 3.66326 14.4439 36.8684
1143 9 6.60364 11.3542 40.5684
1917 11 5.84207 17.216 40.6105
1311 9 5.9459 17.8829 38.6926
1262 9 4.73659 16.2424 36.6541
2561 11 1.50183 10.5804 40.7938
2192 11 6.80321 16.3409 37.4159
2756 11 6.1052 11.7915 38.6253
951 6 8.05216 13.877 38.216
741 6 2.10752 15.5599 38.6505
2614 11 1.01446 17.5957 40.3563
1691 11 0.523036 13.2412 38.7527
2115 11 10.1013 19.7625 38.2661
2585 11 2.99802 20.4873 41.0482
2138 11 2.24615 10.5535 36.1254
1603 11 10.3496 11.8896 38.4357
2692 11 7.67319 13.0575 41.067
2007 11 8.28803 24.8508 3.81238
117 6 7.60509 22.9301 1.54765
99 6 3.39412 27.9821 2.48468
17 6 1.26527 29.7065 5.01897
196 6 10.3289 29.2223 3.69488
2707 11 4.96325 21.8912 2.76625
2051 11 0.70253 28.4701 2.69481
1399 9 0.900288 30.4617 2.0326
1981 11 9.36161 27.2435 1.85415
1458 9 7.81974 26.8136 3.31998
500 6 5.56993 24.3351 3.97615
1542 11 5.91188 27.0664 2.39147
670 6 7.23968 29.4205 0.988112
1437 9 4.12524 22.2639 0.911472
2827 11 2.62976 23.8995 1.36676
247 6 3.10813 22.6083 4.94191
2110 11 7.95739 27.9353 5.10805
2986 11 3.92732 30.0012 5.07425
1581 11 2.65429 30.5885 0.656426
2502 11 3.23472 25.4299 5.22327
1664 11 0.330601 22.2897 5.18844
396 6 0.157834 23.8928 2.73984
435 6 5.13284 27.5634 5.16072
2381 11 9.09454 24.0468 7.81901
2883 11 2.61903 24.269 8.37713
518 6 1.02953 25.9366 6.68214
1459 9 9.5777 25.6369 8.91922
177 6 6.76027 24.2991 9.18548
1456 9 4.17292 24.8749 7.11468
2965 11 5.47755 23.1159 6.80001
52 6 8.18341 21.5111 7.39136
653 6 3.11778 26.7301 9.82031
2741 11 5.28391 26.55 7.90181
322 6 4.20992 21.8735 8.79668
429 6 8.28906 28.7176 7.74404
1228 9 3.56424 30.048 7.16653
1734 11 5.28481 29.6337 8.31926
1893 11 1.83879 28.7349 7.72784
1285 9 0.63279 20.8769 6.72765
522 6 7.43275 25.5205 6.37892
1567 11 8.16476 26.5525 10.0733
1830 11 8.21978 30.3111 10.1062
2805 11 7.68801 21.0454 10.078
1377 9 6.88797 22.1642 11.7722
2403 11 5.36701 23.293 10.9597
987 6 10.3577 29.0035 11.1326
893 6 6.04686 28.2623 11.3289
1367 9 7.744 28.6856 14.1509
2889 11 6.28553 21.0378 13.5848
1846 11 2.98476 26.7548 14.8541
704 6 9.62999 26.0367 12.7985
2945 11 8.37921 23.3573 12.9107
2960 11 6.97323 26.8874 13.3754
2690 11 1.64703 25.7376 11.7889
1274 9 8.02627 22.031 14.551
1359 9 0.246225 22.2686 13.4261
2048 11 3.28398 28.6932 11.9067
1950 11 1.75851 21.412 12.387
1201 9 1.99208 27.3641 13.0498
1695 11 9.93205 28.6949 13.873
558 6 3.92501 30.453 13.9856
402 6 4.68112 24.3704 13.422
1911 11 6.67841 30.319 13.5025
1611 11 0.558176 23.2115 15.221
216 6 0.603999 23.5397 10.5177
1167 9 4.76506 22.1042 20.4836
1203 9 6.96264 30.6552 19.8737
1683 11 8.66418 29.4168 19.4461
1976 11 5.29816 30.4486 18.5523
881 6 2.61921 24.6688 16.7193
2124 11 4.03009 22.7425 15.6728
884 6 4.31517 28.2603 17.0504
2876 11 7.28704 28.4727 16.309
2024 11 3.07177 23.5374 20.1982
2286 11 7.63863 23.0096 16.4455
1835 11 2.42352 30.1146 16.1091
261 6 7.65556 27.1693 18.9856
2686 11 5.15284 21.2207 18.5268
2982 11 5.70876 24.84 18.0228
815 6 8.78642 23.8389 19.1945
1254 9 5.51131 22.8967 17.1509
2762 11 2.61784 26.6588 18.7768
931 6 2.15053 21.3789 17.5974
1047 9 4.0734 25.3225 19.5866
972 6 0.534788 27.8865 16.2489
910 6 9.84212 29.0576 16.8365
2748 11 2.29017 30.7684 20.1853
1927 11 10.2042 26.3282 17.9043
394 6 7.98421 25.5896 15.9006
154 6 0.186799 30.6453 18.2585
834 6 4.18307 28.8636 20.4953
332 6 1.83114 30.5113 24.7263
2903 11 5.06525 26.1353 21.2642
1453 9 0.859344 26.4795 24.8098
2772 11 4.05614 20.9285 22.175
992 6 1.34305 20.8586 21.0997
1714 11 8.47446 25.843 21.4287
919 6 3.30203 23.6918 23.2574
1446 9 9.57444 27.7103 24.8763
1936 11 0.249743 25.8026 22.8726
2326 11 2.17363 28.7635 22.7719
1491 9 6.77051 24.9369 21.9659
2035 11 9.53619 20.6783 24.0385
2461 11 6.4474 24.247 23.9664
1393 9 1.05629 30.2222 21.7567
780 6 8.33699 28.4205 22.1589
2308 11 2.99712 26.2259 24.8209
1970 11 7.23754 27.735 24.7078
2201 11 0.87313 22.4387 23.6335
2471 11 6.35979 30.2582 21.869
1441 9 7.41136 25.7551 25.3524
2782 11 6.62586 23.0085 20.7853
369 6 8.76202 23.0149 23.452
2632 11 10.3451 22.6518 21.1923
1631 11 9.56237 25.545 25.0957
640 6 8.36838 20.6716 20.8771
1156 9 2.77891 25.051 26.6546
1230 9 2.76073 24.7215 30.2356
451 6 6.55823 23.5426 29.1789
1845 11 6.80321 25.5062 27.3025
1121 9 9.71136 20.7698 26.158
2909 11 4.91857 20.9701 28.5843
2843 11 3.07549 26.2283 28.4434
1019 9 3.09229 21.7088 28.0604
172 6 1.66055 28.5218 27.8749
1092 9 4.3335 30.2271 28.7211
1537 11 6.05629 28.9039 29.1639
2747 11 1.81141 22.7584 29.5548
954 6 5.11627 27.4823 26.9021
1879 11 8.79089 22.2749 27.2808
2041 11 2.70604 29.7485 30.1044
224 6 8.86146 27.0894 28.5244
584 6 4.32337 27.4439 30.7085
988 6 6.20609 22.5115 26.299
1720 11 3.95398 30.1327 26.7307
2767 11 3.68104 23.1594 26.5211
2551 11 9.71692 28.7682 26.621
825 6 7.24921 30.1982 26.6083
24 6 10.1749 22.6668 29.5292
2678 11 0.590114 24.8487 26.3
2276 11 8.49047 24.7448 30.7955
2693 11 2.24756 23.5562 34.9984
2213 11 9.91519 23.1207 33.6308
2609 11 8.55807 28.6371 30.8939
2161 11 4.95791 27.7477 33.2932
628 6 2.63085 26.2547 34.1565
2430 11 0.719623 28.345 34.6205
1029 9 8.24784 23.6171 32.5566
1559 11 7.07549 24.6047 34.0923
481 6 7.55717 26.6611 32.5876
553 6 4.8119 23.3763 33.6063
2791 11 10.0951 27.2027 33.5244
234 6 3.89454 30.4061 32.6243
329 6 1.70532 22.5765 32.587
1545 11 6.84979 21.8925 31.8835
1231 9 5.2413 28.1041 35.3961
2628 11 1.66789 25.672 31.738
1303 9 2.92051 21.6285 35.5152
145 6 9.09224 29.8704 33.4213
564 6 9.06444 25.0015 35.696
1676 11 4.67038 24.4168 30.9337
645 6 4.19117 20.6793 31.2244
136 6 7.72977 22.2079 35.7357
165 6 0.212942 27.8939 30.944
1271 9 10.3129 27.9598 31.6702
1371 9 0.182924 30.2477 34.1572
1360 9 6.49564 26.91 37.7933
871 6 9.1909 26.2152 40.1845
1636 11 7.40443 25.0162 37.8687
2121 11 6.71215 27.8611 39.6634
2582 11 1.76968 20.7002 36.9998
2040 11 5.34833 22.8318 40.2551
771 6 4.26832 29.476 39.1432
906 6 0.636711 21.3271 39.514
356 6 4.71216 24.0475 37.7554
275 6 1.94075 27.7112 37.305
3000 11 4.31337 29.9204 36.0102
535 6 8.91542 29.6616 38.7295
2951 11 1.12932 30.0936 38.6673
2618 11 1.92927 23.7431 38.8943
1795 11 4.46083 26.7392 36.8611
809 6 8.28298 21.7795 39.594
1892 11 5.00507 21.8194 36.0977
2399 11 7.34567 28.035 36.0982
1533 11 2.87437 26.8579 40.3633
1219 9 1.92473 25.0585 40.6298
758 6 5.14738 25.6753 41.0254
1881 11 10.3655 23.6561 41.017
317 6 4.39298 20.8116 38.6237
1876 11 10.027 30.2691 36.0945
2254 11 6.32373 33.7594 4.75052
2921 11 1.75505 34.4211 5.04841
2446 11 7.87451 34.3446 1.7889
842 6 1.56715 34.1756 1.95233
1179 9 9.26264 32.6645 1.31547
48 6 9.27561 36.3853 0.784677
2626 11 5.66473 31.6379 1.93601
2608 11 6.87744 37.7586 1.77144
2645 11 8.99217 31.7705 3.24023
1345 9 6.12066 39.7068 1.20864
664 6 6.25675 36.3168 4.06615
767 6 4.15556 39.1094 4.37491
2547 11 2.01943 37.4966 3.46675
1856 11 1.14595 31.9551 3.41295
693 6 8.54819 39.3041 3.58248
1238 9 7.02622 32.7228 3.06884
126 6 3.8481 32.6827 3.736
2047 11 3.96782 34.9262 0.577975
1114 9 2.14967 36.4754 5.27019
1924 11 5.68097 40.8639 3.01227
735 6 7.6571 35.5535 9.42723
1931 11 6.69457 32.7954 8.0752
1859 11 3.21693 32.1233 7.86497
2977 11 7.37711 38.503 9.66121
1215 9 8.52004 31.8413 8.73979
513 6 0.425049 34.2563 7.60968
286 6 4.30007 34.5751 6.89656
2720 11 5.25416 40.4234 7.03286
1982 11 9.61309 33.4755 9.73013
1232 9 5.09951 31.706 9.03156
745 6 1.16475 39.6813 6.38985
1880 11 2.06599 40.0395 8.90226
1745 11 0.758798 37.0047 6.67295
1320 9 9.49289 37.7352 6.22222
837 6 4.92188 38.0136 8.31835
2801 11 4.71028 35.6994 9.54677
1580 11 9.25858 35.8251 7.07801
969 6 2.16295 36.8425 9.57719
1557 11 7.51183 38.3672 5.84927
624 6 7.84683 40.6178 7.42189
957 6 9.57214 33.5876 5.50169
133 6 6.81201 30.8955 5.55906
2334 11 9.64293 31.1249 7.11727
1483 9 4.17259 41.1192 8.57143
2431 11 4.20503 36.9533 5.96051
2796 11 1.79269 39.6233 15.1283
2049 11 7.5152 39.58 12.6268
2220 11 1.94597 32.6583 13.6637
1661 11 5.4614 38.2408 15.337
1163 9 3.24239 34.291 14.3117
2004 11 4.60355 34.9471 12.9227
249 6 7.68291 32.3567 11.9225
466 6 3.42303 40.8198 13.1052
1172 9 8.56252 37.9416 11.5736
156 6 7.49085 36.3357 15.186
1801 11 8.02664 36.0898 12.2575
1102 9 1.56632 37.9995 13.9124
14 6 7.08899 40.1559 15.2655
776 6 5.23136 37.5138 12.0199
2038 11 2.54446 38.2139 12.1283
2333 11 2.06212 36.0398 15.0139
1471 9 6.89898 40.2959 10.7745
1943 11 9.73012 33.1184 13.4095
1298 9 3.94566 34.2898 10.8748
1848 11 4.81914 32.2653 11.0246
542 6 2.16795 31.1094 10.5128
867 6 0.696894 35.1173 12.5882
82 6 10.2853 40.9707 11.1393
1820 11 4.81144 40.5014 10.5627
2683 11 1.85715 34.1029 10.4636
2679 11 3.9501 38.4492 18.4066
2765 11 7.33338 32.7996 19.7935
1427 9 1.02439 34.3862 18.6498
2305 11 10.2748 35.3794 15.9604
2000 11 2.8442 34.6843 19.4959
1759 11 6.22989 35.8367 17.7631
1125 9 2.23884 32.0875 15.8288
2745 11 9.74912 32.0613 16.8581
1465 9 5.74483 37.7925 17.3518
1485 9 5.38415 39.4466 19.7897
2050 11 0.666912 33.2536 16.827
2553 11 4.15875 33.182 15.9355
701 6 3.76564 35.5807 17.2015
1605 11 7.1667 39.1004 18.4413
449 6 9.05169 34.3387 18.2575
2208 11 9.1782 37.0912 20.0541
499 6 4.35875 32.5531 20.326
41 6 10.1818 31.5786 19.8344
2080 11 9.39604 38.3398 15.6379
25 6 7.07556 31.1127 16.4745
248 6 6.58376 36.3691 20.3757
2764 11 1.21557 41.0936 18.6563
2566 11 2.87182 40.2581 25.0271
639 6 8.45977 38.614 22.1764
169 6 5.60806 38.5022 24.337
1725 11 6.79481 35.2933 23.2507
1850 11 4.12903 33.027 23.0043
1638 11 0.944342 40.6875 22.1251
1169 9 4.94881 34.6773 23.9135
1549 11 5.35455 38.4442 21.5659
1744 11 8.23142 38.171 24.8184
2797 11 3.37036 36.3091 23.9254
1126 9 10.2242 39.082 25.2201
903 6 7.42265 32.7495 22.643
380 6 8.87529 35.4303 25.2213
146 6 1.56274 33.8322 21.9986
846 6 2.58625 37.399 20.8253
2054 11 0.229753 36.0774 22.3389
2675 11 10.1914 32.0433 22.5975
1684 11 0.194005 31.6522 22.9433
1499 9 10.1041 33.0231 30.4535
2295 11 4.98433 32.1976 29.0769
1811 11 1.57502 40.0345 28.3156
1278 9 7.97515 38.5406 30.5106
2528 11 4.62368 37.9098 26.8802
2625 11 8.27675 37.7947 28.6136
1085 9 9.70011 32.9664 27.5347
598 6 2.68917 33.1437 27.7907
1823 11 4.92271 35.8139 30.3761
190 6 7.36497 39.9724 26.8852
367 6 3.21744 37.3226 29.1165
788 6 6.47946 35.8071 28.1512
1554 11 1.78577 34.0989 30.685
2421 11 8.90504 34.3397 29.1973
934 6 1.16257 38.2803 26.4103
1650 11 1.74237 35.8277 27.0343
383 6 0.674478 31.5594 30.8721
1258 9 0.906908 39.8153 30.2901
1486 9 3.62991 36.2644 26.0822
2600 11 4.9261 34.4697 26.2482
1584 11 10.1275 31.466 29.011
2919 11 0.278938 32.0947 26.67
2911 11 8.22409 32.7085 26.0954
2624 11 9.95967 40.9601 26.2823
1511 11 6.07735 39.6767 30.5359
1910 11 9.41647 40.4548 30.6931
971 6 7.1429 31.4115 30.4335
320 6 4.22024 40.9303 28.5657
2416 11 9.74951 40.0788 34.6833
2781 11 7.07721 31.5176 34.3006
462 6 1.14058 36.8029 32.3322
265 6 7.24625 38.4825 35.165
2427 11 9.16661 32.5443 32.214
1767 11 1.09475 38.667 34.4438
2474 11 2.72294 39.3572 31.3631
1077 9 3.57487 34.7254 31.4338
1072 9 4.91558 34.2808 34.1874
1370 9 2.63942 39.9393 33.4852
2701 11 4.86684 33.1756 32.247
2578 11 3.28472 35.5768 33.4315
475 6 5.03012 37.6495 32.4904
2594 11 8.27278 37.5279 32.2799
2685 11 4.43632 39.8268 34.3611
2959 11 6.63968 35.2158 34.6209
225 6 7.37342 35.1063 32.0297
2479 11 1.73651 31.6535 33.7914
2788 11 4.18063 33.1162 35.8927
390 6 0.26201 33.8643 33.3691
1245 9 5.59663 31.5542 35.8338
2535 11 9.7361 33.4427 35.9596
2177 11 8.54502 31.4625 40.7001
707 6 6.12035 34.8262 37.4533
2465 11 7.92747 35.3079 39.3703
1396 9 8.54132 37.1678 38.5768
2362 11 6.8225 38.4495 37.8086
1738 11 7.5068 40.626 40.8154
2863 11 3.53445 35.7934 38.4162
899 6 1.70598 31.9864 36.636
1670 11 6.98558 31.8009 37.5224
227 6 10.3289 34.027 39.0773
1383 9 1.04607 31.4054 40.303
677 6 6.36849 33.1377 40.7268
1138 9 3.30577 34.1973 39.7046
2596 11 4.43326 32.5446 39.0006
2272 11 1.20287 33.5574 40.0762
1825 11 2.42736 40.3603 37.9729
199 6 3.49831 38.0625 36.4074
155 6 9.40403 40.0086 37.6255
2817 11 9.33704 36.8871 36.4775
581 6 5.63527 36.8967 40.129
2083 11 9.95172 38.1809 39.6966
1069 9 2.98478 40.9269 39.9312
743 6 5.83671 41.0265 38.517
2789 11 4.22922 39.3667 40.9405
923 6 2.27747 37.2513 41.0687
1391 9 8.46877 31.7792 36.0254
1496 9 19.569 8.98089 2.78028
1643 11 12.4457 5.60188 2.95519
1573 11 15.3443 6.53891 5.09342
2544 11 20.378 9.86473 0.990187
28 6 11.913 8.2645 1.92217
836 6 16.2689 9.18602 4.30141
976 6 12.288 1.44972 3.02861
978 6 17.5673 1.35342 4.24506
1865 11 15.4841 5.45848 1.19924
2210 11 12.8453 3.07762 0.575065
2160 11 19.329 3.06372 2.64123
864 6 20.4667 5.79477 2.69357
1155 9 13.8304 5.19842 4.69588
2140 11 18.3336 7.2757 2.26867
1127 9 13.8128 4.33537 1.94754
510 6 17.0472 5.15228 3.6673
2342 11 14.556 3.3642 3.76955
2137 11 14.7417 8.93486 1.1528
2875 11 10.5954 10.1573 0.392861
1847 11 18.5693 10.3551 4.02819
1561 11 10.6227 9.21306 4.62104
636 6 20.5238 0.447425 8.8964
2970 11 18.7817 5.23594 5.94626
2279 11 14.4065 7.78982 9.13935
2368 11 20.22 2.63837 10.3184
135 6 15.2495 5.33113 7.68117
2055 11 19.9886 8.03433 7.67678
201 6 19.1128 3.45545 8.00555
2673 11 10.7203 2.05849 8.59
1472 9 18.2819 6.60516 7.3952
2302 11 12.1466 0.614203 5.85894
2829 11 10.9957 8.37293 8.34678
1236 9 18.467 9.46985 8.00972
2918 11 17.762 5.78212 9.25381
746 6 12.7701 8.39571 6.26057
112 6 14.141 2.36049 6.83056
1572 11 12.8578 4.86086 6.46567
2651 11 16.9268 8.38545 7.08304
2998 11 13.9241 3.4098 9.76375
870 6 11.3154 5.34823 8.79379
1372 9 12.4997 8.22899 9.83672
1526 11 16.6976 1.92266 6.93725
1216 9 12.2644 2.22083 10.1126
566 6 10.7148 3.08872 5.97644
2231 11 20.3959 1.99499 5.98178
2306 11 18.0508 9.88587 10.1169
1080 9 11.5921 0.27225 7.80201
397 6 15.5915 1.17159 10.2333
2994 11 11.9244 6.75641 11.3665
2761 11 16.5896 4.92849 13.4005
2398 11 14.8863 7.72497 13.0585
820 6 17.4382 8.98353 13.5637
1328 9 12.9597 8.30799 12.6976
2171 11 11.8829 8.99286 14.4126
2422 11 15.5511 1.44431 13.8124
2825 11 12.6143 9.89326 11.1679
2101 11 19.3584 7.09808 12.4376
2953 11 20.3963 10.0907 14.0304
614 6 18.5317 5.81421 15.3433
1343 9 15.9028 3.41349 14.6721
70 6 14.3951 5.1794 11.9421
1967 11 19.9012 3.35849 14.2252
277 6 12.5731 1.64389 14.4828
1921 11 11.3953 2.32289 11.9973
438 6 18.8933 4.53475 11.745
366 6 19.1516 0.729665 14.6557
315 6 16.3107 7.51593 10.9233
2872 11 13.936 4.08236 15.4019
748 6 12.255 1.94354 18.7101
2434 11 17.8674 8.89238 16.2865
1495 9 16.104 0.687556 15.79
1063 9 16.4728 8.21041 17.9059
2350 11 14.6631 9.43738 17.1634
826 6 20.5687 8.29002 17.354
2318 11 17.039 8.64821 19.7887
994 6 11.9631 8.13995 19.2364
1341 9 14.1623 4.8923 17.4586
2241 11 12.3648 5.99188 17.3775
2857 11 20.2494 4.51402 17.4489
2557 11 14.2886 0.600795 16.9311
1912 11 16.0194 6.18225 17.3101
2005 11 14.4799 3.74918 19.1335
497 6 17.6459 4.31469 18.7858
1587 11 16.9141 2.70742 16.4597
100 6 11.9957 4.61752 20.4185
2438 11 18.388 2.51424 20.4773
64 6 13.9045 7.39938 15.5226
1833 11 10.6062 2.74121 22.2355
2988 11 16.5907 7.35632 24.9063
398 6 16.6368 4.76023 23.8721
2273 11 16.37 1.9905 23.3962
1292 9 12.8972 7.08114 22.3776
2411 11 14.0928 8.14965 21.0955
2893 11 18.7904 6.05422 21.2371
1505 11 13.8923 5.23687 22.7988
2030 11 13.0091 1.69834 24.0762
1552 11 12.5088 8.10051 24.201
1414 9 19.4017 3.96277 21.56
336 6 10.882 4.92477 23.6715
2332 11 10.8428 6.88803 21.4516
2079 11 19.3063 3.79068 23.6803
1479 9 15.0061 0.870252 24.5111
936 6 18.2737 0.50319 22.2931
710 6 19.2714 7.9529 24.2261
37 6 16.1467 9.62061 22.8666
273 6 15.2745 1.56898 21.072
841 6 15.6694 6.05364 20.7004
1688 11 13.1155 0.208035 20.7415
582 6 14.0296 6.29981 25.4111
1277 9 17.1196 2.67793 30.6945
253 6 19.2933 8.13416 29.4805
1993 11 19.6756 6.78953 26.6957
2223 11 16.7827 4.58888 26.4849
912 6 14.5853 6.54384 30.3031
587 6 12.3308 0.925002 26.782
981 6 16.0317 9.60866 26.5216
1555 11 15.2018 0.661553 26.5269
1635 11 12.988 6.04144 28.2613
2713 11 16.8551 7.61935 28.2882
927 6 10.9931 6.88605 30.2248
1935 11 18.344 1.93662 29.2163
1694 11 16.0246 4.31623 30.3487
1934 11 12.4103 2.54267 29.1526
1098 9 12.0296 9.88333 29.3553
1550 11 13.1855 9.71122 27.5781
1165 9 11.8507 4.26238 28.1029
350 6 11.3151 8.02781 26.5545
1342 9 17.5558 6.54597 26.6646
163 6 14.9149 3.10501 27.9312
105 6 15.1058 9.1471 29.509
939 6 19.3043 4.54964 28.2407
2488 11 11.5492 3.85067 26.015
2419 11 20.0888 5.60297 30.7347
60 6 17.7834 1.93776 25.7872
1778 11 12.9104 8.73483 30.9119
2656 11 15.0031 2.30411 34.4153
2595 11 11.7481 2.26611 33.1131
2209 11 15.448 1.25947 31.0792
617 6 17.8056 6.03031 32.0553
2935 11 11.0982 5.43115 32.5745
2755 11 16.6853 8.51895 31.7592
930 6 15.6016 4.83583 35.7731
2277 11 19.8433 7.60839 33.5507
1208 9 16.366 1.2949 33.1069
1861 11 18.0128 2.65407 32.6798
1420 9 15.7261 8.05691 33.5889
31 6 12.4158 7.91467 33.6648
2940 11 14.7795 6.26112 33.3028
945 6 13.4848 3.92117 31.55
2114 11 17.0164 7.60893 35.2734
1455 9 13.079 1.31033 34.3935
1938 11 14.5015 9.70269 34.1956
1044 9 20.1335 9.85726 33.3057
187 6 12.5817 0.415854 31.1889
434 6 11.7704 4.36668 35.4075
695 6 17.8078 1.08389 35.9845
1957 11 20.1238 5.68081 39.497
2358 11 16.049 0.998707 38.3328
1705 11 18.9702 9.17644 37.8797
2297 11 14.7239 3.96172 38.6446
1134 9 16.7237 2.97251 38.6204
1616 11 17.8877 3.6388 36.9565
2204 11 17.6162 2.94697 40.5193
2292 11 10.6352 4.03868 38.2533
2298 11 12.9636 6.62665 40.1678
2126 11 16.0061 7.21695 39.2134
1066 9 14.2074 6.04856 38.4628
766 6 12.7981 2.3396 38.8298
53 6 14.5318 9.01211 36.8432
1926 11 13.3859 6.54912 36.6792
1919 11 12.1512 1.1469 36.3355
865 6 17.6792 0.205491 40.246
904 6 17.8953 5.65181 40.8298
917 6 19.892 3.04603 38.9828
1470 9 10.9904 9.91546 39.2376
576 6 19.2555 6.38715 36.6532
529 6 17.5721 9.0458 40.9012
1668 11 20.0481 0.351683 37.785
2495 11 13.1569 10.1429 38.8965
2413 11 10.4555 0.873664 39.8848
1070 9 17.7406 9.4875 36.068
955 6 15.3276 1.66739 40.9443
1497 9 14.8493 7.24487 41.0695
512 6 10.6206 4.67011 40.9648
793 6 13.2805 15.6981 0.79738
300 6 19.1324 12.2337 1.44012
342 6 14.5834 18.3404 3.22587
279 6 11.1652 16.3368 5.16478
1782 11 11.1547 18.0604 2.50517
2063 11 10.6495 14.6449 2.73444
855 6 20.4187 19.0132 1.07608
2873 11 13.7595 18.8916 0.583211
2943 11 17.0972 18.7413 2.31407
2746 11 14.5197 15.6701 3.31962
1954 11 16.8258 13.2913 2.012
1112 9 15.3449 13.7157 3.33308
67 6 17.9693 15.6322 2.36288
1452 9 18.5211 18.5832 4.12847
862 6 18.8379 13.2323 4.97455
1667 11 13.6631 12.164 3.19086
1445 9 17.5045 17.7859 0.372497
2565 11 20.4536 14.0757 2.8743
941 6 10.95 11.816 3.39327
2257 11 20.428 19.2147 3.82254
1758 11 18.4192 16.5641 4.98818
1433 9 18.6261 18.4597 9.26209
1196 9 18.168 11.9698 9.37191
1036 9 11.9121 20.202 9.24554
2458 11 12.3921 13.7225 5.73529