LAMMPS data file via write_data, version 2 Apr 2025, timestep = 155000, units = metal

3000 atoms
17 atom types

-0.09504685088255016 34.532727095147635 xlo xhi
-0.09504685088255016 34.532727095147635 ylo yhi
-0.09504685088255016 34.532727095147635 zlo zhi

Masses

1 6.939999998214724
2 10.80999999721919
3 14.00699999639678
4 15.99899999588435
5 18.99840315811277
6 22.98976927408601
7 24.30499999374767
8 26.98153849305915
9 28.08499999277529
10 30.97376199003218
11 32.05999999175275
12 35.44999999088069
13 39.09829998994218
14 40.07799998969016
15 72.62999998131635
16 79.90399997944515
17 126.9044699673545

Atoms # atomic

2367 4 1.0904630162863775 0.47721213036075244 2.0842664789031002 0 0 0
51 6 7.151789040204406 3.571730480589457 2.009251677048685 0 1 -1
205 6 4.931765658285449 0.7108294888332322 1.148129411522101 0 2 2
1294 9 1.7180576387101754 1.9939915172027958 2.053893253922936 0 0 0
1863 4 6.1228014186612825 1.7868587042135589 3.467044566369519 0 1 0
524 6 0.4331062686320014 4.507600572876519 3.6676672233279035 0 0 0
390 6 4.009109364540227 2.9622253462266603 3.79194995113185 1 0 0
2645 4 3.2412394782644336 2.185427317144722 1.6149981721709348 1 0 1
2791 4 3.4458747620905155 7.539702891563196 3.1831302473646566 1 0 0
1906 4 1.9401773366360124 6.449153347850765 1.323330312801691 0 1 1
935 9 3.1063054104716583 6.11001735855279 2.4259683457222474 0 0 0
2299 4 2.619363342644041 5.012942910836523 3.474055057657932 1 0 1
603 9 7.425618425786336 8.184566840552213 3.551978220857221 0 0 0
1335 4 0.6044271649441132 2.6731689835198043 0.9386673407144875 0 0 1
1433 4 4.410417683663258 5.524604615389021 1.5990532875272003 0 0 0
2668 4 5.804153965898949 8.50783470826416 3.5571896612273606 0 0 0
2123 4 1.4585139126787363 2.380530809979499 3.6864972244226695 0 0 0
2343 4 7.523201453014135 7.291527660749525 2.2009559510813803 0 0 0
1894 4 7.646760559549347 -0.0806788781306288 0.754836201480577 0 1 1
2612 4 6.430321192404225 2.100365489944054 -0.042343505353107935 0 0 0
2240 4 8.51476099488733 4.976400666084715 1.0472817975370714 0 0 0
1253 9 5.812989419837404 0.3725537400275139 4.149249544800557 0 1 0
1809 4 7.6112828352852775 4.412900059126714 4.1758705502646265 0 0 0
874 9 4.471707325919875 5.586831059600584 -0.06078877228523996 0 0 0
993 9 0.2865326571420478 8.369438325336596 4.50755403969838 1 0 1
1910 4 4.5000508021495484 7.326175018849863 5.690042379531435 1 0 0
2488 4 2.099115757984797 0.3724612586521292 5.43192593643344 0 1 0
1931 4 4.7146720008978455 0.5831461164470869 5.416560883593282 0 1 0
839 9 1.0949061223766936 1.6737177565234573 5.170468547379098 1 0 0
444 6 1.5456455011557249 4.225844792351202 7.850506932895536 1 0 0
1981 4 0.8983215773950856 6.181086657740097 7.227414638965631 0 1 0
262 6 7.554691994960469 2.837346931448587 5.496491774326812 0 0 0
2418 4 8.115568460286887 4.3708457272969365 7.704929759003276 0 0 0
2720 4 1.0753756683944031 2.708375177781682 6.345783528987598 1 0 0
596 6 2.50865693219584 6.234534171582362 5.5190348517411145 0 0 0
2978 4 3.6930904390561072 0.48179773486994404 7.794663173298879 0 0 0
316 6 5.6945666251243345 7.2895230623045375 7.467637062082752 0 1 2
2960 4 8.08935657374573 6.867701058339606 7.678155745792096 0 0 0
2916 4 8.360366051890063 1.320601587633203 7.508104499848146 1 0 0
1840 4 7.761338357081272 7.16642309651097 4.819257473197308 0 0 0
837 9 8.47677727349583 5.7701104314574625 4.492786711072181 0 0 0
1159 9 3.495492926105175 -0.04012416373768729 6.302996170165219 0 1 0
650 9 4.467673858730898 8.08984982237805 4.334017614195217 0 0 0
2773 4 0.15370981980312898 6.758544724477423 4.298452126268085 1 0 1
2639 4 6.706348538774968 6.324843658162027 11.829683640867852 0 0 0
2255 4 4.421021773066628 5.135167590201127 11.259901507026129 0 0 0
807 9 5.259740583862864 5.854973931810646 12.393051609791069 0 0 0
826 9 2.9327578145134336 8.063668042286182 9.871130300462918 0 0 0
1879 4 3.3495599271360357 4.140167544937987 9.034538530200791 0 0 0
1504 4 3.7845164384241237 6.846314182830801 9.296209021315699 0 1 0
62 6 4.5068104114239835 2.178943345833037 9.1047862409478 1 0 1
2090 4 7.991995350821295 4.686790110183312 10.335024197849961 0 0 0
2870 4 7.337014857214363 0.09012895858050138 9.682709809034984 1 0 0
1817 4 5.822732289498474 5.140625299563346 8.958755060615257 0 0 0
1147 9 8.191410015663271 6.073773324195325 11.145442192780882 0 0 0
879 9 4.300052945650025 5.256591443444648 9.635585467129744 0 0 0
2941 4 1.3906681394562517 7.9851502838686725 9.372588290203598 0 0 0
2856 4 0.5614579959001944 3.249512678511854 9.796456684193712 0 0 0
927 9 7.174113783602397 4.242678526868418 9.010701131111567 0 1 0
1308 4 3.636482056725809 1.5437281777209944 11.359532420527117 0 1 0
570 6 2.4444477349889047 3.3585490465138776 11.311263747238492 1 0 0
980 9 3.9624528835306734 1.0862570046735778 12.852832245567166 1 1 0
676 9 7.922117752548074 1.4225606949033545 9.108643733387563 0 0 0
1589 4 2.6887512458211353 8.068960328227426 11.528734675725056 1 0 0
1684 4 6.734322211239766 2.6429158270931876 9.073550009177223 0 1 0
573 6 1.3635664201416147 1.3306298156167844 8.773403779783646 0 1 1
1080 9 8.29177054960591 8.105917950016792 8.796228967165751 0 0 0
43 6 0.18037013076650096 6.950033656144927 12.004270049988481 0 -1 0
1292 9 0.4486533585145399 6.905427804933385 8.584893252624738 0 1 0
869 9 1.9753170430287752 7.846719298567165 15.095699236787937 0 1 0
645 9 1.1925191398293555 4.946055075047718 14.803964515860875 0 0 0
1747 4 2.794789525683814 4.414188210260065 14.718151718949647 0 0 0
2155 4 3.139666926104889 7.603048938007744 16.188051766874864 1 0 0
988 9 4.2724585339985905 3.8453652579639366 14.531776204911795 0 1 0
1045 9 8.002359589764332 7.563030370474671 16.717063729958834 0 0 0
2058 4 4.917762244377128 3.8099837373828933 16.05200200673441 0 0 0
2249 4 1.2143729737657933 6.583110993953255 14.331737918423762 1 0 0
1546 4 5.379443589591354 4.9070779845794 13.741799934207084 0 1 0
395 6 6.364862761483324 0.564603004459624 15.28634473057601 0 0 -1
56 6 5.196653893623222 6.866304488004196 15.685047960686953 -1 0 0
1839 4 4.177761227938153 2.3702441959562446 13.812187215911944 0 1 0
2467 4 2.4958569196869616 0.4059361611445002 13.475041136858513 0 1 0
2286 4 7.730985397933154 2.22517972759219 14.747797326952348 0 0 0
2443 4 0.6172527668198392 4.90606885892813 16.30705888763999 1 0 0
1340 4 7.439618831799345 6.145589669317127 16.17547485831522 0 0 0
2124 4 1.0199292614301931 0.7535950998898719 15.798446544305964 0 1 0
455 6 7.391714878284827 4.460969406128609 14.75770926425489 -1 1 1
2826 4 0.6497036448672907 8.51480047980169 15.913372385615233 1 0 0
2615 4 4.581761233508241 7.2600696137003045 13.085659421677356 0 0 0
2970 4 0.4411148599920893 3.925822890764775 13.733565387164916 0 0 0
2863 4 3.5480367658220895 -0.0711610022626875 15.893437596849743 1 1 0
1919 4 5.131533667973395 0.03461314962677335 12.937836227293703 0 1 0
996 9 7.870328620375502 7.481394661653379 19.95852350559503 0 0 0
2808 4 2.12645370598929 5.813288953263886 20.005162178076183 0 0 0
105 6 7.649533508127905 4.859986485248988 18.333637610009077 1 1 0
183 6 1.1199326998455639 1.8992701875312632 21.230232693077568 0 1 0
1926 4 1.3045299587819228 8.084850640150124 20.788493210260466 0 0 0
738 9 5.273272757269601 2.926043842820657 20.154712002396995 1 0 0
835 9 1.3230399330374463 6.581163706417402 21.20504581057289 0 0 0
998 9 2.478999998907712 4.341562597881731 19.445652008031484 0 0 0
1582 4 5.40368222589761 1.3254058373932907 20.193979684187738 0 1 0
1717 4 3.3811672056156623 4.662786459341572 18.097026086578367 0 0 0
2381 4 7.125909285975149 6.027170381989201 20.29999867334957 0 0 0
1616 4 3.601188147461647 2.068352565756811 17.509485172884176 1 0 0
680 9 4.438950834056009 3.45939466720601 17.514670665844648 1 0 0
2872 4 3.6741892484597196 3.481398487568758 20.383263474365638 0 1 0
2214 4 5.67179467873133 3.405833804358524 18.62528315932516 0 0 0
1076 9 6.2444329864908354 0.2295000383418613 19.176426560226222 0 1 0
2781 4 1.2420611505267511 3.4562019077416517 19.244597899124454 0 0 0
1331 4 7.884657973244674 7.493086453784504 18.37699368857385 0 0 0
1892 4 7.772947640556393 0.6160990441810149 18.812940285335856 0 1 0
1692 4 6.119320517735577 3.7497907548642577 21.208544333874553 0 0 0
620 9 3.809117380113877 0.4014655275350056 17.422977002030386 0 0 0
283 6 1.7788108333537784 6.4906893600674795 17.56136941916693 1 0 0
2860 4 5.384108125672363 0.04951683196435956 17.767674564741085 0 0 0
2599 4 2.2882342682767605 -0.00799132711290396 20.980321979505533 1 0 0
241 6 1.1808235397011124 2.5639285796292883 17.26928330858384 0 0 0
261 6 0.8003722175919946 5.143458106792451 24.940964058774128 0 0 -1
711 9 2.6364723515315833 7.184792426890463 23.88447908465289 0 0 0
1535 4 7.936306312217608 4.965326291323424 22.64095102690835 0 0 0
55 6 5.730363553337112 7.192216746353431 24.701872236097582 0 0 0
1392 4 3.377107117365813 6.064333292125552 24.79726974445185 0 0 0
2771 4 1.2941713151359615 7.705324875256876 24.550372922637912 1 0 -1
235 6 3.7907812540951658 4.692721734396763 22.290194241848212 1 1 -2
136 6 3.4703114826960793 1.201386623808936 24.1301692470728 0 0 1
1462 4 3.172866399046331 3.4623349962342465 23.973546474598834 0 0 0
286 6 6.873946821419018 2.154923112232906 23.21722589649174 0 0 -1
2398 4 2.237544765173726 6.2755864773945795 22.514354652782277 0 0 0
881 9 0.013818115470272195 -0.05436078618013078 24.121575180197752 1 0 0
1266 9 3.6470376532233084 4.452912668300806 25.148618454163806 0 1 0
1347 4 5.419854062755707 6.080687958599745 22.527068971311117 0 0 0
1441 4 5.2382988220692965 4.479503807638935 25.552724553189453 0 0 0
1918 4 3.7512071962688953 8.31302524546267 23.665228743287628 0 0 0
2505 4 1.4151695325035425 -0.06345066179370358 25.006832748574798 0 0 0
830 9 6.562921329057374 5.357097966027069 21.712591500769147 0 0 0
2909 4 5.224574782484373 0.12059158843947511 23.399736255777768 0 1 0
1888 4 -0.07205858694179657 1.4621167474325139 23.426360661761656 0 0 0
2091 4 7.7900719637117035 3.360355035801763 25.508441531676652 0 0 0
1351 4 7.924563261037911 7.155850711121495 25.67981040818692 0 0 -1
1108 9 5.49202507414667 0.5548942802068704 26.90371613839633 0 1 0
478 6 0.6186163093519429 7.786843997033806 26.634175716302277 1 1 0
1808 4 6.005025210669003 5.037852825037961 30.098192102364347 0 0 0
1150 9 7.23653519795727 7.511124096586374 27.132127025488078 0 0 0
2040 4 4.040091340003341 4.597752482398168 28.523741825591483 0 0 0
2425 4 6.387172414301293 3.813794805601736 27.842882058626962 0 0 0
703 9 6.791105077330573 0.24828110109038584 29.727505155930995 0 0 0
763 9 1.0823169190277473 0.5155585683188312 29.70287230005228 1 1 0
2508 4 0.6563510379409709 0.6571910010792076 28.194074318196954 0 1 0
1191 9 5.6219445447715 5.114126746851792 28.56059033826572 0 0 0
1559 4 1.4130762828890544 3.8058336794007728 28.76557743069502 1 0 0
1178 9 2.4781810053834405 4.727513925463619 28.07746273214227 0 0 0
2760 4 5.938099482067478 6.4722553477362075 27.685699877308764 1 1 0
1627 4 2.635327139007544 4.303029240931021 26.484091883613015 0 1 0
1386 4 6.649193646357997 0.4594651129507099 28.04882403096945 0 1 0
659 9 6.371495369288719 3.4208965916913705 26.238406153401165 0 0 0
2666 4 2.1633294208270915 6.331351942100567 28.105976531263188 1 0 0
1207 9 2.2880103218824757 7.555736712614783 29.17788287763178 1 0 0
437 6 1.6168887945258061 2.1714433624488203 26.56512161760175 1 1 0
1459 4 3.9873953690032016 0.6138805040477902 27.588686819597783 0 0 0
2326 4 2.676054322683551 0.963267711088037 29.91908058277812 1 0 0
2674 4 8.31628529256981 7.521918898788034 28.411686267537878 0 1 0
2366 4 3.7397003629416212 7.657159930630356 29.801590362218153 0 1 0
727 9 3.855059081572893 -0.01873162982927595 29.16201366367095 0 1 0
392 6 8.241994934885906 5.214161601176821 30.10330339155374 -1 0 0
1721 4 5.143651576179937 0.04411325944660062 30.07332482085515 1 1 0
1482 4 5.66777827868571 1.927654847856378 26.066313059134036 0 0 0
855 9 0.35486563271820026 1.2838582965740641 32.44168214601327 1 1 0
819 9 5.720199381424735 8.2177240051946 33.449127677992806 0 0 0
2349 4 1.6372512757124664 0.5688921216321811 33.06655260201987 1 1 0
966 9 8.055008642415986 2.072961010101462 31.722140735997634 0 1 0
1946 4 7.855811443041733 0.7384416475628345 32.80517914306429 0 1 0
2471 4 1.451669875182702 7.150436838271337 33.36433996619156 1 0 -1
1909 4 7.136622325766549 3.295133110032095 32.36221429409469 0 0 -1
34 6 3.712114272230692 0.20368403214027478 32.2111744330378 1 0 -1
1641 4 0.4050335764634646 5.041498155938539 34.37590857461892 1 0 -1
1290 9 5.873738595963459 3.161137268509885 33.36823310649709 0 1 0
529 6 5.672554960847029 7.200009443138524 30.7198348775185 1 1 -2
2330 4 4.545450353995473 2.6670662249775807 32.61915234049051 0 1 0
621 9 8.525161411675182 7.668482752089485 32.33160913908133 0 0 0
733 9 1.6819663507885891 5.935113779709345 34.40229235520501 0 1 0
2928 4 0.2551200090416133 1.4371624775862804 30.820326253657043 0 0 0
1164 9 7.854047086898567 1.1945190439916908 34.384195417148966 0 1 -1
2561 4 3.0171046457026742 5.054405686113622 34.02792593441261 0 1 0
2700 4 5.622466417048028 4.550197909557279 34.148658343441014 0 1 0
295 6 2.63488422773969 2.489126480315635 34.0286584185666 0 1 -1
1388 4 0.32080052873333437 2.840615351943848 32.919775301605036 1 0 0
1737 4 7.1680656257325115 7.481918503602322 33.192953646085535 1 0 -1
104 6 3.066624777358191 8.259781114918313 31.881280184158044 0 0 0
319 6 4.593514223441788 3.0556758500933126 30.365686328553345 -1 1 0
1742 4 7.37828740424532 1.6247302818418419 30.284777134055247 0 1 0
1849 4 1.1409943457336822 7.351761548309644 30.37275698002022 0 0 0
1854 4 7.964555804898539 8.425262481898711 30.92418656600904 0 0 0
2399 4 4.6736750921318535 7.039227708388558 33.944357185446876 0 0 -1
891 9 5.25446470344515 10.694449274340721 0.29844291208929774 1 0 0
981 9 2.9503614463807453 15.66947738525322 0.6984985208440229 0 0 0
1715 4 3.6432344393380194 10.870646591306164 0.19322713635492048 0 0 0
458 6 0.4552154214162281 14.954662510247495 2.9718011267123035 -1 0 1
2262 4 2.273507216371747 12.019034219671333 2.7102494020524985 0 0 0
1970 4 2.629152847498915 14.760070081666424 1.931258796920672 1 0 0
1832 4 4.507333977777373 15.578177418973103 0.22288529676853222 1 0 1
2028 4 0.28146102668092365 9.218402748545389 2.9982708349275016 1 0 1
1652 4 5.805184370063641 11.340641615481161 1.641488554703814 0 0 1
25 6 5.775198702026576 11.016043691540032 3.8445503670079946 -1 0 0
224 6 6.7675695798323545 16.799562626432103 2.199830588643646 0 0 1
157 6 4.160306066658719 12.898098659019954 1.9977270540751721 0 0 1
375 6 7.558644716666242 13.239343038326158 2.038883231613854 1 1 1
1997 4 5.385842189703832 13.644331164513304 3.8339984417242228 0 0 0
1696 4 5.906687271884204 9.177421572466919 0.1686589476001653 1 1 1
335 6 8.006370053846663 9.98656301357247 1.2124438950857683 1 -1 1
175 6 2.828040643917324 9.97815194611619 2.2145301551614303 0 0 0
2267 4 8.26850319255068 9.518923434076132 3.4351802374516796 0 0 0
2069 4 0.0035224796000879396 13.548569224922192 0.19373957759002194 1 0 1
122 6 1.4054428377469828 11.477222777332173 0.22288128687374342 1 1 0
1448 4 8.23135997459925 15.479660268798547 0.9643626793622985 0 0 1
1135 9 1.7226776316139538 12.363737835686102 4.1946596554767455 0 0 0
1736 4 7.428263759797738 17.182796659734205 7.247449626747717 0 0 0
428 6 7.016047933157821 10.748995439796111 7.4519615669144725 1 0 0
305 6 -0.02508596671135561 13.127817179477196 6.292474102279084 1 1 0
712 9 6.182402183223821 13.505926603987154 5.223550784497312 1 0 0
1142 9 7.846254141020688 16.278236597138047 5.964998150109355 0 0 0
2957 4 3.2453804442599385 16.744522394143278 5.662831517628856 1 0 0
2202 4 5.157884436968513 13.486764922731314 6.482768950202485 1 0 0
1772 4 0.49222119928733304 17.01956139002761 5.163110086744486 1 0 0
1110 9 3.461910053365992 10.697765767550028 8.35943053980272 0 0 0
1215 9 2.699753545557227 9.991605449225732 5.594132497827855 0 0 0
1264 9 5.42470788960923 13.074991254921196 8.009143729602574 0 0 0
2427 4 6.925876041218892 14.955011318638363 5.690703906649851 1 0 0
2266 4 3.4028142176287197 9.847693397631222 7.000990847217178 0 0 0
2325 4 2.4044446370829857 11.557339158290777 5.500459563492046 0 0 0
2431 4 7.158981823889423 12.281960246509591 5.356578234213077 1 0 0
2377 4 1.5927579000740695 8.789156334436669 5.403564004868079 0 0 0
2890 4 4.9197367882908285 11.453717971772743 8.213174261894162 0 0 0
1359 4 1.4145419270834176 13.82332840568958 4.6403860950515465 1 0 0
2409 4 3.8930666592214296 9.69599392311797 4.4805663341797795 1 0 0
1399 4 6.964308803798109 13.014714944153495 8.445522420574038 0 0 0
2474 4 -0.08212237620426768 13.939766049022326 8.3708047106463 1 0 0
2489 4 0.10779789856357652 11.484542829169312 4.359976637024256 0 0 1
544 6 3.4100614346303555 14.871459004458808 4.249867988976669 0 0 0
2545 4 1.314274141668904 12.992469786567685 11.170146392335113 0 0 0
601 9 5.616850235990092 14.365855843052936 12.501686874018551 0 0 0
2535 4 2.9663486289126735 15.921977485708547 9.566819189493204 0 0 0
1048 9 0.45029186641153307 12.217730011812547 12.362794710966416 1 0 0
555 6 -0.006992140983971996 11.923833102261767 9.353013558854183 0 0 0
1522 4 3.652565442924017 9.493374399902574 9.495132378948595 0 0 0
372 6 3.432583735304116 11.768026142827114 11.363745336541644 1 0 1
336 6 7.780375758039645 12.574693005150989 10.445290880201195 -1 -1 0
2194 4 4.8582136013478445 15.316613395494771 11.38220899539123 0 0 0
644 9 4.462956987326966 15.32743439251509 9.822089022181597 0 0 0
2403 4 7.0266891640310405 13.765644019949871 12.202083277478721 0 0 0
2129 4 1.4911898310010625 16.178135801088324 11.91829844003936 0 0 0
1995 4 4.539587648957825 9.90762958756417 12.35521646853739 0 1 0
1745 4 7.911495650583943 10.70362194564864 11.801646123975425 0 0 0
10 6 6.65620615063377 9.166072800186166 11.105966915112708 1 0 1
16 6 1.9802782529451612 13.842708656018486 9.21476869047769 0 1 1
929 9 2.1160094362312476 16.910863359520565 10.657804675545353 0 0 0
3000 4 5.65670493428875 16.233695210012932 9.030584025261863 0 0 0
2331 4 8.134216009851581 16.622488763644498 9.71202721723286 0 0 0
2988 4 4.359807432083932 13.88220911010711 9.021586190739292 0 0 0
2659 4 2.26063878267718 11.634700543730483 8.846623130885092 0 0 0
661 9 3.7173152087644037 8.601129999585915 12.691884056855697 0 0 0
2559 4 7.004727430208707 8.92575505679367 8.91231751981578 0 0 0
817 9 6.927650767088545 17.214324499404295 8.813550779462727 0 0 0
2560 4 4.5254011235329195 13.20052637011911 12.835871599842987 0 0 0
2271 4 5.350969797280334 10.722760177844314 15.71674792664282 0 0 0
1748 4 1.4926117215821406 11.721799374391681 13.502199861729853 0 0 0
1094 9 3.74928461947647 15.267779624578926 16.6804765129197 0 0 0
1557 4 5.785676288003611 15.53197127832152 13.728914161507815 0 0 0
637 9 0.7935725016348378 14.344145242779437 16.853789977544093 0 0 0
1398 4 0.5440405804187785 15.817540043566087 16.029010901888043 1 0 0
1436 4 7.773402335024951 11.240723832679885 16.721506965722398 0 0 0
852 9 6.864936686438618 10.246038028548357 15.711690579232972 0 0 0
925 9 4.619430467865799 16.421303640694045 14.346694116293392 1 0 0
1517 4 3.5229099057851783 15.487182519134802 15.04579165150222 0 0 0
2176 4 2.60494690260037 8.826238358805853 13.899173500272754 0 1 0
2951 4 7.7222988600348526 10.165774524738056 14.28238703569108 0 0 0
275 6 7.086008172409573 15.200540722016868 16.14177143725498 0 -1 -1
411 6 0.8585475620006062 10.99362837953744 15.444822435538784 0 0 0
1751 4 5.201242353539944 14.594378054896428 17.057280670520914 0 0 0
367 6 3.4531088541880908 11.309853974419578 14.301832361023353 0 0 0
126 6 6.259802612448849 11.64939102989165 13.036076171179765 1 0 0
1327 4 6.8471238611160095 8.70803577041886 16.27180740303672 0 0 0
2516 4 0.21506855545874648 13.103402692987189 16.10803287500626 0 0 0
399 6 4.104401368491053 9.71740520800951 17.19633490281655 0 1 0
551 6 2.394512520023342 14.338461375284478 12.928540929878046 0 0 0
556 6 7.979081086944328 16.229643942959463 12.925537722500264 0 0 0
1939 4 3.8965194066589395 16.369834739881547 20.606312277864312 0 0 0
2475 4 0.21562164614073914 14.579228128325884 18.346794920752476 0 0 0
1182 9 0.7089835459548557 10.780313756153728 18.49303890178553 0 0 0
2429 4 1.9012437218714526 11.015966672881659 17.402150054586713 1 0 0
804 9 1.1264036158581536 9.593895313083262 21.275135051250132 0 0 0
574 6 5.39043056940024 15.344514533758403 19.21100016781538 0 1 0
1588 4 5.2988015379240805 10.189405051378403 18.99735863472744 0 0 0
186 6 1.5781931240267857 15.75216254094587 20.140816785550246 0 0 0
2408 4 4.966866772323832 13.013677465439176 20.05500838260701 0 0 0
1750 4 7.815533350452376 16.856736647571058 18.38780536582669 0 0 0
589 6 2.914352933697568 12.394930424666702 19.347216344279172 1 0 0
838 9 5.926497888988499 10.009618532888753 20.464425287031226 0 0 0
2149 4 7.542907375708306 13.945071147233273 20.216286874306157 0 0 0
1799 4 6.878540451512553 11.350508653921828 20.837548919135756 0 0 0
2179 4 1.4359727070666137 10.409863737469568 19.91274781725541 0 0 0
1470 4 1.1510592690178372 13.450433230249784 20.558748289634355 0 0 0
732 9 6.344481555514408 12.928601562574674 20.83884086945345 0 0 0
580 6 5.631726571998744 12.269359371748099 17.693848805458646 1 1 0
2729 4 7.052903398840544 8.773872153366494 20.62046353925237 0 0 0
2953 4 3.597825508691389 16.856689166071167 17.294504799642244 0 0 0
1105 9 -0.0671382287406459 13.48774368135998 19.504453527752382 0 0 0
2980 4 2.4491815200989886 14.401174486314517 17.248114285459742 0 0 0
1344 4 6.1752922176700835 13.343964051064868 22.433543916138902 1 0 0
2435 4 7.583771678872202 15.334689684573299 23.633380724922233 0 0 0
1473 4 0.0443263318907995 14.73784242236065 23.112841858973468 0 0 0
2473 4 2.271306636396482 16.066053731877727 22.75401070280822 0 0 0
640 9 3.8123248970347845 16.481210294575195 22.136583206929647 0 0 0
1763 4 5.686067182048533 13.887936270169538 24.956958107222434 0 0 0
823 9 6.147307674961943 14.578583124948349 23.516104235981263 0 0 0
1527 4 2.2362573922844473 10.166693208159534 22.288151305114074 0 0 0
2971 4 2.3011518732407867 13.466577905960412 23.721754874518286 1 0 0
328 6 6.1722999174629205 11.726683148387309 24.649694966616394 0 1 0
2413 4 4.949303379132419 15.526099883337059 22.96917446559899 1 0 0
747 9 3.7465319017647642 9.791487000433333 22.92367791852347 0 0 0
714 9 1.567232913617804 14.878449934343537 23.670871844625534 0 0 0
2308 4 4.028088702261721 10.891951764245977 24.042449357611684 0 0 0
394 6 1.935096839046923 11.609201063110616 25.218382189364895 0 0 -1
267 6 3.8022891659682974 12.663050892151245 22.39839530878338 0 0 0
1950 4 1.3135533895710072 15.628288303967873 25.134677687485 0 0 0
176 6 8.169520034941064 14.009546481730611 25.710912515212822 0 0 1
57 6 0.13782732562430916 12.148176252273151 22.40366520760269 1 -1 -1
2600 4 4.823027834298936 9.651206015563877 21.629900922645113 1 1 0
106 6 3.526027063349944 14.040276990685811 25.723759751149807 0 0 -1
653 9 2.158149901944028 16.965561218613388 25.800136101049425 0 0 0
1726 4 5.574883016009084 15.883249885716108 29.05022857401345 0 0 -1
1273 9 2.270693545576913 13.05163105963184 28.342706709049178 1 0 0
2665 4 5.614517437138921 11.032756085079612 28.29362773098396 1 0 -1
1876 4 7.938878209321578 10.069574881577685 29.07504809206514 0 0 -1
1336 4 0.263267765647875 10.082929808267785 26.971688146777797 1 0 0
1822 4 1.9486338175968023 14.039878922316756 29.63375272621001 1 0 0
1516 4 3.5202723044805753 16.444662092220952 26.438503500670812 1 0 -1
1311 4 7.666919432558261 11.302452041254783 26.58852073795717 0 0 -1
1540 4 6.435206613673929 8.978389790058273 27.202766488283554 0 0 0
877 9 5.035776699617932 12.317615580730923 29.16565569983018 1 0 -1
1112 9 6.787491356319844 14.897987191314707 29.221792808989303 0 0 -1
1829 4 7.7837704301103186 14.8982750263627 27.94225728862087 0 0 -1
1168 9 0.7222626047024064 10.483077176177318 28.59261664846256 1 0 0
2245 4 3.9478970579180586 13.090454651230935 28.225154682430183 1 0 -1
1707 4 1.7421656077515832 13.333436561129616 26.85845603780812 1 0 0
381 6 3.3774830590981324 16.368573965198262 28.853787076466762 0 0 0
2419 4 6.364973139950829 13.30761262634316 29.249360999303185 0 0 0
939 9 7.009803370398565 10.37913037468283 27.72896893518999 0 0 -1
415 6 4.037707974803317 9.434044030451846 28.60333720285814 1 -1 0
2899 4 2.0709746134375964 11.407196842965751 28.785459355539565 0 0 0
540 6 5.752463141795237 15.915463495106028 26.557218341685303 0 0 -1
1443 4 1.8209730830383972 8.956276659238403 28.44532252164864 0 1 0
564 6 -0.059347029311978924 14.803319690224162 27.076540705140783 0 0 0
446 6 8.406323455610353 12.677224936669166 28.1770014110787 0 0 -1
1381 4 4.426941031286479 11.89034670174924 30.565229412353933 0 0 0
1072 9 5.444510910675198 15.273178749286403 33.55344837447541 0 0 -1
1251 9 0.8841531150406048 14.215330022335014 33.51529555928088 0 0 0
2709 4 8.315273473414575 12.113208335442593 34.481044279686984 0 0 -1
1674 4 1.312972268472334 9.858023553302294 32.69109301710249 0 0 0
89 6 6.433983320998559 10.746828907267487 31.348884698299372 0 -1 -1
2007 4 4.613886571180657 15.457661935493777 32.18315791749107 0 0 0
1330 4 5.116668509362167 9.033651193878603 32.21047374552107 0 0 0
1571 4 1.605176211341831 13.041307491769837 32.614907915098165 1 0 0
1420 4 6.145902780591836 13.838720455884408 33.937832465855614 0 0 -1
614 9 8.139653078678172 16.061187032180385 34.076962517095275 0 0 0
2011 4 7.606561852442421 12.688356481358237 32.003469554864026 0 0 -1
843 9 8.388406549329003 14.091471372106469 31.61592218307896 0 0 0
1889 4 5.846191536644846 11.428912229842679 33.55336136217693 0 0 -1
141 6 3.3698396455889092 13.881163818500417 31.241694706197784 1 1 0
2667 4 6.646827271851239 16.487528438243196 33.61460046313822 0 0 -1
1026 9 7.03547949785635 12.524625852723922 33.608053458298066 0 0 -1
1456 4 7.611779385495096 15.145580480143256 30.63663240169177 1 0 0
528 6 3.468123530224032 11.126383874035605 32.366609080584155 0 1 -2
2117 4 1.8660804943381937 15.392610507663855 34.00382681625998 0 0 -1
302 6 0.08620361748985056 11.711727069519132 31.3782063642305 0 0 -2
1213 9 0.42493748385376184 8.646050650865845 33.28314948575347 1 0 -1
532 6 2.861263177860097 17.049730419047375 32.511540131245596 1 -1 0
1098 9 3.5382648956532012 25.308094089306206 2.050559050177482 0 0 0
715 9 6.069812467702533 25.197966403133613 0.18829757350377838 0 0 1
2063 4 2.167711027938938 17.641907219790244 3.3280185766444035 1 0 0
1119 9 8.370454345209296 18.73259617538269 3.9315444140690747 0 0 1
1353 4 3.596698027321249 25.607693357538558 3.7310283762117464 1 0 0
688 9 1.4124812151381496 23.455557499929924 1.1714446474729199 0 0 0
2204 4 0.5815986610311145 24.036568257833554 2.464470633777775 1 0 0
2654 4 3.3241108788337734 19.638214123761124 1.8661795798461336 1 0 0
840 9 3.3525488354085424 18.02604190901459 2.1768875122606186 1 0 0
2281 4 5.752776655496321 21.78121241646999 1.5208009257274782 0 0 1
2530 4 1.0460637239933874 21.907987650895212 0.9094180416265395 0 0 0
2759 4 3.0051344577254966 23.682325138353885 1.7245891423506248 1 0 0
370 6 4.831295907686635 22.276399444987298 3.4533650915554595 1 0 1
234 6 5.700266008185603 19.71568092355715 2.4014025340797547 0 0 0
325 6 1.8362836818864428 20.791517617645926 3.7512807890142583 -1 -1 0
592 6 0.20038229169402139 17.868735547588592 1.0513843396681204 1 -1 -1
1520 4 7.791075099376142 18.927024893666324 2.4279907472823785 0 0 0
2656 4 7.584407289510335 25.526402666618818 0.6716576290105903 0 0 1
2103 4 4.785435946984972 17.404204330307255 2.64709683837002 1 0 0
2259 4 5.039446058738328 25.548098511808703 1.38653842896936 0 0 0
2661 4 2.551665238130694 17.303731899134856 0.9135952047962461 1 0 0
2224 4 8.345277003953619 24.871287465275007 3.083534225223258 0 0 0
209 6 3.122770005665049 21.24640277666492 0.2783409443617272 0 -1 1
957 9 6.46506479294333 22.148812219199982 0.13114993340622416 0 0 1
2139 4 2.697959091695191 22.26519760989634 5.192722649130202 1 0 0
864 9 2.0683108899505043 17.67014097140532 4.998094175751719 1 0 0
1495 4 8.034469301307837 19.886863658213922 5.055490486999298 0 0 0
1569 4 7.885221005673467 23.071484226414373 7.648605050493073 0 0 0
849 9 8.073374119280585 23.051473230520745 6.076156157379083 0 0 0
1023 9 7.700536945611689 25.62711159892799 4.309470263901667 0 0 0
1977 4 5.464690566902699 20.084471716184414 4.626015722282564 0 0 0
894 9 6.675413903317874 20.563311013403425 5.506912209345387 0 0 0
1275 9 2.2177022340324064 22.554856379149804 6.746928977602672 1 0 0
557 6 5.143652627571456 17.70981240870044 4.918413041659542 0 0 0
746 9 5.46875830435199 19.78123545154792 8.35605224488665 0 0 0
1938 4 6.442679355951121 20.077505175859944 7.0373826214150865 0 0 0
1901 4 7.771640864257525 24.602066239793306 5.538085432167642 0 0 0
1567 4 1.0985576179047858 21.53673850704779 7.343324661291248 1 0 0
1528 4 4.072756993845498 19.205489336885478 8.041678965247952 0 0 0
962 9 1.1799916060443594 25.184737088091776 8.177035166383495 1 0 0
2444 4 6.794879417530351 22.1873101650268 5.469281575273543 0 0 0
2632 4 1.822867906295018 24.17363627056806 7.052161726540212 1 0 0
1424 4 3.685738658606433 22.37019315978973 7.7316633902622085 0 0 0
332 6 3.7380756359145804 20.326506957904563 5.9839358369971825 0 0 1
2248 4 2.011631163309198 19.11785690657702 5.634827516377243 1 0 0
443 6 1.4535150792033134 25.12515451798282 4.753634359431652 0 1 1
22 6 5.526937702147718 23.907212471832967 7.103292298661671 0 0 0
78 6 3.0015484738376026 17.432544888386207 7.657647496822318 1 0 0
527 6 0.08999872108441251 19.445495185075305 6.662063637562829 0 0 0
2657 4 7.651984923319993 17.317485431306242 4.659649492984854 0 0 0
190 6 0.9618892257548344 22.904398028106645 10.336632312862035 0 0 0
457 6 2.12632658086167 19.97226196339123 9.179129805000136 1 0 0
1881 4 6.75158016611635 24.644290650077046 11.270323235320143 0 0 0
2647 4 7.7485127100802424 18.54726724635683 12.578007821673534 0 0 0