ITEM: TIMESTEP
150000
ITEM: NUMBER OF ATOMS
3000
ITEM: BOX BOUNDS pp pp pp
-9.5046850882550160e-02 3.4532727095147635e+01
-9.5046850882550160e-02 3.4532727095147635e+01
-9.5046850882550160e-02 3.4532727095147635e+01
ITEM: ATOMS id type x y z
2367 4 0.924934 0.601294 1.51951
51 6 7.39011 3.42389 2.05863
205 6 5.2916 0.614563 1.32886
1294 9 1.64278 1.81157 2.26656
1863 4 6.2466 1.60331 3.48323
524 6 0.374614 4.56473 3.41904
390 6 4.35435 3.10674 3.73008
2645 4 3.19638 1.88268 2.04547
2791 4 3.69095 7.67037 2.82668
1906 4 1.74879 6.56458 1.53173
935 9 3.14881 6.10087 2.48817
2299 4 2.78853 5.18289 3.74227
603 9 7.52858 8.21963 3.46074
1335 4 0.815089 3.07353 1.46306
1433 4 4.29233 5.33635 1.60002
1894 4 7.72681 0.115853 0.795911
2123 4 1.19607 1.95391 3.83695
2343 4 7.52841 7.2194 2.11839
1255 9 0.0295229 3.43597 0.0969349
2773 4 0.177915 6.80299 4.18002
874 9 4.33976 5.6158 -0.0218244
650 9 4.56625 8.19892 4.15302
733 9 1.52727 6.09598 -0.0597422
2612 4 6.27591 2.33792 0.146377
1253 9 5.64877 0.348189 4.19356
1159 9 3.49446 -0.0168367 6.39547
1910 4 4.61116 7.2635 5.37561
2488 4 2.02561 0.194283 5.70002
1931 4 4.61228 0.681245 5.38112
839 9 0.979407 1.38505 5.39091
444 6 1.40299 4.07783 8.0788
1981 4 1.10397 6.11492 7.31652
262 6 7.32829 2.87997 5.41059
2418 4 8.08586 4.54921 7.65891
2720 4 0.896674 2.45693 6.54167
596 6 2.30453 6.3677 5.50159
2978 4 3.64253 0.540333 7.89299
316 6 5.52544 7.52528 7.51239
2960 4 8.02337 7.0841 7.53101
1292 9 0.513523 6.9617 8.55748
1840 4 7.89253 7.32593 4.77964
2916 4 8.27997 1.46179 7.43641
993 9 0.246425 8.35356 4.46934
1809 4 7.70534 4.69401 4.24708
2639 4 7.10044 6.63062 12.3607
2255 4 4.87545 5.64008 11.2886
807 9 5.49089 6.26057 12.6281
826 9 2.96881 8.07687 9.96644
1879 4 3.33498 4.32888 9.44078
1504 4 3.96693 6.94216 9.35961
62 6 4.5464 2.24241 9.19847
2090 4 7.91491 4.95363 10.281
2870 4 7.47539 0.170796 9.63546
1817 4 5.82707 5.3391 8.72376
1147 9 8.17295 6.23055 11.1634
879 9 4.47548 5.43525 9.68673
2941 4 1.51554 7.891 9.42285
2856 4 0.421016 3.46415 10.0638
927 9 7.12688 4.33376 8.95773
1308 4 3.49632 1.4392 11.1907
570 6 2.15965 3.42915 11.1807
1080 9 8.11773 8.24933 8.71733
676 9 7.97612 1.53401 9.01954
1589 4 2.80174 8.01897 11.5775
1684 4 6.78383 2.76566 9.18715
43 6 0.265377 7.16936 11.8092
1743 4 8.27768 7.56786 10.2321
980 9 4.02045 1.18428 12.7372
573 6 1.43422 1.06361 8.57658
1919 4 5.1899 0.101705 12.8605
869 9 2.11672 7.75044 15.0572
645 9 1.31778 4.86656 14.5534
1747 4 2.77694 4.18611 14.0884
2155 4 3.14289 7.48432 16.2311
988 9 4.36835 3.9028 14.3335
1045 9 7.96717 7.77399 16.9308
2058 4 4.78911 3.83758 15.9476
2249 4 1.4961 6.49673 14.19
1546 4 5.3536 5.12202 13.8242
395 6 6.33583 1.08481 14.6163
56 6 5.33074 6.80265 15.7839
1839 4 4.63696 2.43289 13.6812
2467 4 2.58248 0.717522 13.5339
2286 4 8.06951 2.44142 15.0053
2443 4 0.908408 4.61736 16.0905
1340 4 7.37081 6.50248 16.1593
2124 4 1.15623 0.920498 15.9522
455 6 7.59231 4.37872 15.9114
2863 4 3.72972 0.0653889 15.8623
174 6 8.50118 0.0195371 17.0669
2970 4 0.376964 4.06731 13.4096
728 9 2.35067 0.193992 15.0486
2826 4 0.768807 8.49494 15.5887
2615 4 5.00967 7.68974 13.1857
996 9 7.60374 7.47626 20.0364
2808 4 2.3956 5.76186 20.0517
105 6 8.00746 3.32283 19.1443
183 6 1.1872 1.80439 21.1941
1926 4 1.73884 7.97515 20.9393
738 9 5.16241 2.98825 19.9764
835 9 1.49755 6.40124 21.2227
998 9 2.43237 4.17676 19.4639
1582 4 5.43052 1.38743 20.0994
1717 4 3.21484 4.46688 18.069
2381 4 6.96965 5.99445 20.4039
2860 4 5.4686 0.0341297 17.8249
680 9 4.37628 3.50158 17.4476
2872 4 3.63895 3.35027 20.3286
2214 4 5.60524 3.58276 18.5618
1076 9 6.37072 0.356153 19.1647
2781 4 1.05246 3.45279 19.4901
1331 4 7.46295 7.70349 18.4909
1892 4 7.80896 0.974904 18.8313
1692 4 6.26984 3.60717 21.0052
620 9 3.92893 0.367807 17.4765
283 6 1.57453 6.62319 17.7025
1616 4 3.71028 1.97534 17.5719
241 6 1.04548 2.96766 17.2358
2905 4 -0.0682631 5.99907 21.2986
261 6 0.756181 5.1299 24.8697
711 9 2.63939 7.03004 23.9348
1535 4 7.71901 4.73543 22.7406
55 6 6.11721 5.94623 24.583
1392 4 3.45849 5.89822 24.79
2771 4 1.34345 7.53983 24.695
235 6 3.68529 4.24086 22.4383
136 6 3.46701 1.21895 23.8387
1462 4 3.01213 3.29057 24.1342
286 6 7.11677 2.01998 23.5634
2398 4 2.1749 6.03606 22.6536
2091 4 7.57911 2.98396 25.5514
1266 9 3.491 4.33173 25.2169
1347 4 5.25383 5.75218 22.4885
830 9 6.45459 5.13202 21.6893
1918 4 3.69611 8.15641 23.4239
1441 4 5.0639 4.23075 25.6245
2909 4 5.4499 0.00394514 23.2444
2505 4 1.60929 0.350468 24.9093
881 9 0.298639 0.0578221 24.0097
1108 9 5.43293 0.390778 26.8247
478 6 0.450085 7.70849 26.8026
2366 4 3.6811 7.79738 29.9759
1150 9 6.98163 7.33819 27.264
2040 4 3.82309 4.65082 28.7659
2425 4 6.13271 3.50299 27.8462
1482 4 5.31131 1.74783 25.8983
763 9 1.00134 0.368667 29.7324
2508 4 0.51644 0.495109 28.2595
1191 9 5.46654 4.9036 28.5004
1559 4 1.11614 4.17878 28.8155
1178 9 2.36088 4.84037 28.0963
2760 4 5.78977 6.26464 27.622
1627 4 2.52713 4.19189 26.5133
1386 4 6.68562 0.377525 27.8443
659 9 6.15429 3.11916 26.2198
2666 4 2.18738 6.51707 27.9877
1207 9 2.23792 7.69591 29.2347
437 6 1.54675 1.9067 26.5695
1459 4 3.92645 0.303741 27.4991
2326 4 2.72573 0.735285 29.928
2674 4 7.99825 7.44776 28.558
703 9 6.74569 0.0987611 29.4606
1808 4 6.16093 5.09937 29.8834
1351 4 7.65815 6.90595 25.8766
855 9 0.475804 1.05467 32.661
819 9 5.73272 8.26889 33.6051
2349 4 1.76874 0.233826 32.911
966 9 7.7697 2.05087 31.6918
1946 4 7.50699 0.880341 32.8817
2471 4 1.05294 7.44505 33.8664
1909 4 6.79415 3.3377 32.2936
34 6 4.11259 0.060881 32.0268
1742 4 7.17433 1.41358 30.3085
1290 9 5.54007 3.08184 33.4306
529 6 5.68469 6.97045 30.9391
2330 4 4.2987 2.34952 32.7041
1164 9 7.73852 1.39227 34.3927
295 6 2.99212 1.14342 34.3781
2928 4 0.256179 1.21987 30.9329
1854 4 7.80575 8.54365 31.0051
2561 4 2.84306 5.53888 33.8914
2700 4 5.37735 4.6455 33.914
1388 4 0.270186 2.45525 33.4155
1641 4 0.286682 4.97427 34.3185
1737 4 7.12761 7.47994 33.2312
1849 4 1.0349 7.25855 30.3201
621 9 8.4005 7.65297 32.3244
104 6 2.8255 8.09454 32.124
319 6 4.21468 2.98772 30.5356
392 6 8.33134 4.8969 30.3098
2399 4 4.83623 7.15167 34.4098
891 9 5.26903 10.887 0.305053
981 9 3.07151 16.1881 0.78687
1715 4 3.69529 10.5882 0.325102
458 6 0.703305 14.9239 2.76423
2262 4 2.15444 11.7806 2.87978
1970 4 2.99152 15.1757 2.10876
1832 4 4.52424 16.2409 0.0428425
122 6 1.69017 11.737 0.20433
1652 4 5.77132 11.713 1.52654
25 6 5.96059 10.9926 3.61988
224 6 6.80944 16.8771 2.03313
157 6 3.91633 13.0371 2.20551
375 6 7.36243 13.4332 1.77336
1997 4 5.50061 13.8113 3.81286
1696 4 6.21642 9.46391 0.037441
2267 4 8.39019 9.50171 3.15369
175 6 2.61877 9.67859 2.11149
335 6 8.04232 10.4708 1.05108
1448 4 8.24489 15.5054 0.872984
2028 4 0.222118 9.26828 3.04986
2069 4 0.150869 13.5952 0.251262
2668 4 5.98332 8.67595 3.55928
1772 4 0.349449 17.0187 5.28252
428 6 7.01802 10.9555 7.27494
2890 4 4.67477 11.5175 8.04403
712 9 6.17687 13.5336 5.18285
1142 9 8.00261 16.3628 5.78994
2957 4 2.97205 16.5584 5.84929
2202 4 5.14703 13.5933 6.57302
1110 9 3.28906 10.5418 8.30197
2409 4 3.87528 9.68646 4.36654
1215 9 2.77037 9.96231 5.49091
1264 9 5.38294 12.956 8.11186
2427 4 7.34846 14.8541 5.45312
2266 4 3.39257 9.6156 6.93882
2325 4 2.31279 11.5227 5.53351
2431 4 7.12111 12.2393 5.40086
2377 4 1.63022 8.81424 5.249
305 6 0.292 14.844 6.14056
1359 4 1.49194 13.8018 4.5695
1736 4 7.37604 17.0116 7.10051
544 6 3.28505 14.9857 4.24572
1135 9 1.51665 12.2414 4.27707
2545 4 1.27944 12.8531 11.0529
601 9 5.66859 14.3803 12.3354
2535 4 3.12212 15.9387 9.32929
1048 9 0.371157 12.3693 12.2435
555 6 0.0711844 11.8935 9.13828
1522 4 3.64463 9.53091 9.59649
372 6 3.05813 11.5585 11.1666
336 6 7.79652 12.3576 10.5552
2194 4 4.99254 15.4141 11.1991
644 9 4.63352 15.3578 9.63191
2403 4 7.15396 13.888 11.957
2129 4 1.49048 16.0721 11.6327
1995 4 4.2509 10.1901 12.4487
1745 4 7.82416 10.4617 11.876
10 6 6.12604 9.32665 10.8653
16 6 1.94567 13.9825 9.15587
929 9 2.21955 16.9025 10.4766
3000 4 5.6831 16.2229 8.74808
2331 4 8.24397 16.5424 9.68598
2659 4 2.02335 11.3429 8.6366
661 9 3.75776 8.7495 12.7344
2988 4 4.43796 13.9074 9.12004
556 6 8.32976 16.1851 12.7266
817 9 7.01568 17.0991 8.71534
551 6 2.11066 14.2788 12.8525
2560 4 4.52975 13.2725 12.6652
1399 4 6.85664 12.8235 8.63516
2559 4 6.85883 9.19851 8.65499
2271 4 5.30405 11.0046 15.583
1748 4 1.46014 12.0647 13.4721
1094 9 3.69502 15.1931 16.7457
1557 4 5.70117 15.4992 13.5975
637 9 0.760446 14.2789 16.9262
1398 4 0.533129 15.6976 15.9909
1436 4 7.47273 11.739 16.8563
852 9 6.83674 10.6951 15.7784
925 9 4.52256 16.3691 14.2824
1517 4 3.55957 15.2691 15.08
2176 4 2.68067 8.84496 13.991
2951 4 7.72073 10.7664 14.4053
275 6 7.00706 15.5059 15.8411
411 6 0.97213 11.0884 15.2419
1327 4 7.07636 9.11545 16.395
367 6 3.58966 11.671 14.1636
2516 4 0.00920843 13.0812 16.2046
462 6 0.811874 17.1697 13.5274
126 6 6.16268 11.565 12.9732
1939 4 3.66259 16.0354 20.4306
2729 4 6.92145 8.77051 20.7986
1182 9 0.882801 10.8642 18.3516
2429 4 2.2006 11.243 17.5013
804 9 1.24205 9.51162 21.1075
574 6 5.70211 15.2056 19.3025
1588 4 5.25802 10.2521 19.0721
186 6 1.25981 15.7157 20.2657
2408 4 5.0402 13.0435 20.3954
1750 4 7.76477 16.8735 18.2466
589 6 2.90325 12.6618 19.3096
838 9 5.92865 10.0857 20.524
2149 4 7.58619 13.9288 20.4546
1799 4 7.04238 11.3339 20.8124
2179 4 1.55283 10.2006 19.7183
1470 4 1.14606 13.2699 20.6337
732 9 6.47961 12.8637 21.05
580 6 5.49094 12.5118 17.917
2475 4 -0.0525114 14.4711 18.4031
399 6 4.06417 9.70365 17.354
2953 4 3.33343 16.7561 17.227
2980 4 2.38016 14.3413 17.2846
1751 4 5.08533 14.5753 17.2211
1344 4 6.3163 13.2349 22.6754
2435 4 7.60212 15.5208 23.758
1473 4 0.0114882 14.6598 22.9307
2473 4 2.50488 15.827 22.732
640 9 3.87042 16.3888 21.9807
1763 4 5.69589 14.1638 25.0677
823 9 6.23086 14.7075 23.5998
1527 4 2.24114 10.127 22.3242
2971 4 2.17327 13.462 24.0579
328 6 6.22717 11.9143 24.5172
2413 4 5.07034 15.6017 22.7365
747 9 3.74213 9.76265 22.9482
714 9 1.52284 14.834 23.6899
2308 4 4.20009 10.7037 24.1685
394 6 1.83547 11.5943 25.3267
267 6 3.86703 12.9902 22.3901
1950 4 1.25536 15.8174 25.0284
176 6 8.15472 14.3704 25.6028
2600 4 4.8341 9.88521 21.7474
57 6 0.454042 12.0842 22.5784
653 9 2.12172 17.0046 25.8239
106 6 3.50281 14.1351 25.8495
1726 4 5.46864 16.0928 29.0908
1273 9 2.25268 13.0214 28.4071
2665 4 5.4661 11.0809 28.0904
1876 4 7.74919 10.045 28.8777
1336 4 0.242877 10.1494 27.0357
1822 4 1.94038 14.1564 29.5563
1516 4 3.5127 16.4492 26.3463
1311 4 7.44124 10.8216 26.2267
619 9 8.53193 8.70395 29.4983
877 9 5.03032 12.351 29.0538
1112 9 6.73758 15.0107 29.0453
1829 4 7.74288 15.1435 27.8289
1168 9 0.7111 10.4205 28.6583
2245 4 3.88301 13.133 28.0808
1707 4 1.56971 13.2165 27.0077
381 6 3.20621 16.2979 28.9468
2419 4 6.3075 13.3696 29.1355
939 9 6.79 10.2336 27.5327
415 6 3.9182 9.438 28.0695
2899 4 2.03905 11.3967 28.884
540 6 5.74876 16.1082 26.4839
1443 4 1.74825 9.02334 28.4422
564 6 0.14427 14.7527 26.9852
1540 4 6.13913 8.75175 27.3358
1381 4 4.51939 11.8026 30.5005
1072 9 5.45063 15.5874 33.4464
1251 9 1.0706 14.3701 33.7405
1456 4 7.59182 15.3161 30.5231
1674 4 0.954472 10.1178 32.9369
89 6 6.17043 10.4474 31.1967
2007 4 4.58119 15.6153 32.1422
1330 4 4.97431 8.83849 32.3665
1571 4 1.84785 13.2485 32.9819
1420 4 6.00396 14.1404 33.9966
614 9 8.25337 16.1488 34.019
2011 4 7.37163 12.9881 31.943
843 9 8.29584 14.2587 31.496
1889 4 5.76046 11.6031 33.4203
141 6 3.33827 13.7764 31.2185
2667 4 6.75383 16.6682 33.6114
1026 9 6.88947 12.8576 33.5441
2117 4 1.90985 15.6715 34.3306
528 6 3.73636 11.0672 32.4522
2709 4 8.23627 12.3537 34.2938
1213 9 0.107637 8.85393 33.4454
302 6 0.0564114 11.7961 31.3671
532 6 2.86925 17.1336 32.5538
1418 4 -0.0859182 15.0905 32.8618
1098 9 3.53796 25.2874 1.83184
1119 9 8.3566 18.7851 3.80054
2063 4 2.23013 18.1057 3.70344
209 6 3.71035 21.4983 0.506894
1353 4 3.62951 25.46 3.52411
688 9 1.41759 23.4377 1.28936
2204 4 0.738826 24.067 2.61101
2654 4 3.41668 20.0921 2.43117
840 9 3.36954 18.4491 2.47071
2281 4 5.88737 21.7194 1.24843
2530 4 0.936541 21.8199 1.17916
2759 4 3.00624 23.6091 1.7082
370 6 4.18265 22.4311 3.69148
234 6 5.78938 20.1175 2.57364
592 6 0.293322 17.9487 1.17863
325 6 1.59663 20.6625 3.93728
1520 4 7.79948 18.841 2.28004
2656 4 7.56172 25.3818 0.646272
2103 4 4.78112 17.6562 2.87976
2259 4 4.99279 25.344 1.16021
2661 4 2.62707 17.7934 1.05879
715 9 6.0998 25.115 -0.0020688
2224 4 8.37356 24.7677 3.13536
2139 4 2.52966 22.1743 5.40616
864 9 1.89638 17.6327 5.30321
1495 4 8.02424 20.0591 4.68277
1569 4 8.01751 23.0027 7.76761
849 9 8.26595 23.0618 6.26378
78 6 2.878 17.839 7.84931
1977 4 5.38977 20.4809 4.75125
894 9 6.76487 20.7865 5.4678
1275 9 2.28215 22.5115 6.90572
557 6 5.10593 17.6844 5.33748
746 9 5.78997 19.7105 8.17647
1938 4 6.84387 20.3022 7.0968
1901 4 8.05574 24.6587 5.73431
1567 4 1.07902 21.7788 7.62186
1528 4 4.64009 18.9813 7.41258
962 9 1.31582 25.248 8.0016
2444 4 7.02139 22.4544 5.37016
2632 4 2.10066 24.2301 7.01711
1424 4 3.67449 22.2219 7.8017
332 6 3.57154 20.2622 6.22383
2248 4 1.69658 18.929 6.25961
443 6 1.40055 25.0601 4.89597
22 6 5.77112 23.6179 7.44414
1023 9 7.75008 25.5554 4.43851
236 6 8.34178 25.3384 7.91742
2657 4 7.73968 17.4091 4.53713
190 6 1.22137 23.1036 10.5948
457 6 1.62857 20.2338 9.38491
1881 4 6.83967 24.6052 11.1237
2189 4 -0.0476887 24.7168 8.61829
951 9 0.704263 20.3671 12.4906
2364 4 3.40951 17.9816 10.8412
2324 4 5.02168 23.5197 9.63785
327 6 6.64677 19.6347 11.3256
2727 4 2.41149 25.4372 9.32387
639 9 7.73701 24.6783 12.5618
1827 4 3.06143 21.74 10.3921
610 9 5.18655 24.4768 10.977
2647 4 7.86333 18.4918 12.683
741 9 4.17485 22.065 9.35206
910 9 3.41128 18.6115 12.3888
1519 4 6.6503 18.6449 9.16084
1543 4 0.484405 21.0284 11.102
1930 4 5.35459 20.9149 9.181
2348 4 4.69369 23.8546 12.4381
424 6 7.08937 22.756 9.80783
1714 4 4.69097 19.621 12.46
140 6 3.43115 21.5858 12.4437
2406 4 1.13915 17.84 9.54289
2146 4 1.91463 19.206 12.6047
1502 4 0.599595 23.8408 14.35
264 6 1.53524 19.7984 16.9439
1434 4 1.90599 22.2176 16.1106
1929 4 7.66087 23.6175 16.2161
1844 4 5.34034 22.8239 15.0187
946 9 5.11777 24.1973 13.9985
2534 4 1.18966 21.3928 13.636
2070 4 4.01788 25.1629 14.7135
237 6 5.11353 20.0513 14.7097
2558 4 3.61366 19.3419 16.4396
2669 4 7.00227 20.9539 15.6187
1208 9 6.52068 22.4832 16.2794
2641 4 5.29808 17.3047 15.3995
2873 4 6.56856 24.8867 13.7593
30 6 8.345 25.658 16.0065
1236 9 0.780608 22.3481 14.9091
992 9 8.28577 20.1671 16.259
1246 9 4.36296 17.962 16.63
961 9 3.69507 25.5458 16.2721
2394 4 3.53009 17.409 13.5256
1360 4 0.181217 18.3856 15.6519
2144 4 2.45689 24.6864 16.9177
1720 4 5.11261 25.5185 17.0572
2192 4 2.75531 22.7096 18.6994
2136 4 4.44273 24.8505 20.8686
1501 4 7.49385 23.5923 20.5407
2576 4 5.52744 18.2139 17.7474
916 9 0.340023 18.484 19.3957
321 6 2.4857 25.0707 19.9659
397 6 5.74162 24.1782 19.2402
2794 4 7.84129 19.4189 17.6533
2810 4 6.72792 18.6092 20.0057
967 9 6.96121 18.2926 18.4302
2805 4 1.61247 19.4284 19.0173
210 6 6.29483 21.4242 20.9658
1478 4 4.32573 20.0767 20.4438
594 6 3.29501 18.0828 19.3987
410 6 2.20657 21.3159 20.3604
2235 4 5.88042 22.2747 17.7749
2383 4 0.101049 17.2809 18.2069
1059 9 8.01601 18.9982 21.024
2211 4 0.336465 23.3617 17.6351
2858 4 0.534419 17.6983 20.772
581 6 3.9882 20.9785 18.11
133 6 8.36345 22.198 18.9647
1020 9 1.93958 23.2178 17.4452
2166 4 1.49395 22.3409 22.2406
2551 4 5.99839 18.2439 25.6063
748 9 4.02476 19.5688 21.9613
1453 4 2.03378 18.3095 24.8258
665 9 5.29462 21.7823 23.7943
520 6 0.673751 17.9406 23.0782
2361 4 1.73007 24.8856 22.6833
2556 4 6.50957 24.8282 22.7381
2662 4 6.95182 21.8516 23.8896
2738 4 4.83248 20.3421 23.2934
2790 4 4.79437 22.1395 25.3007
1256 9 0.602032 23.6736 22.6572
2550 4 4.24559 17.9473 22.3035
2624 4 4.17391 25.0625 23.5377
1521 4 4.88185 22.7625 22.5991
1166 9 1.56384 21.0415 23.2587
1309 4 2.47191 19.9753 22.3007
2359 4 2.32879 21.4804 24.6981
99 6 6.3575 17.675 23.6435
600 6 3.97603 19.0371 25.3161
773 9 4.99803 24.3981 22.2931
796 9 7.864 21.6 25.2161
1383 4 7.90384 18.6349 22.6034
2935 4 8.45697 23.0137 25.7911
791 9 7.7492 24.6922 21.674
2515 4 0.121718 20.3336 23.536
1688 4 0.070752 23.4747 24.093
243 6 7.7708 25.6285 24.8111
558 6 1.54789 24.1492 25.5935
1265 9 6.91742 19.0719 26.592
96 6 1.27774 22.306 28.3793
2782 4 8.51341 18.3942 26.152
507 6 4.94556 20.2204 28.7692
2525 4 6.07972 24.6562 29.5286
388 6 6.20478 23.0112 26.8884
2517 4 3.50543 20.4096 26.9863
1933 4 6.7599 18.8206 28.123
1587 4 0.799649 18.5861 29.6181
2987 4 6.65658 25.3482 26.978
1002 9 0.113409 17.764 28.3335
1739 4 2.76425 22.9689 26.9174
1701 4 7.03434 20.7328 26.3199
597 6 3.43841 24.5394 28.5911
1349 4 6.99773 22.1836 28.8143
872 9 7.19326 23.3845 29.8726
337 6 8.42343 20.2031 29.1375
1954 4 1.45038 25.7433 28.5519
1077 9 6.09725 25.8704 28.377
725 9 3.32175 21.715 26.0564
320 6 1.08352 19.9762 26.1326
1823 4 1.30102 17.2326 27.3456
2719 4 2.94473 23.2743 30.1823
678 9 1.77144 23.8591 32.9225
2903 4 0.468752 24.0611 31.8788
1285 9 2.06864 19.0695 30.5095
1407 4 6.50673 22.7109 31.317
2706 4 8.02148 21.7114 34.3343
1836 4 2.40251 22.2335 32.6832
1607 4 5.69634 21.1469 33.303
2374 4 2.85569 25.0095 32.6932
131 6 7.84549 25.1747 31.994
2314 4 6.76845 20.0236 31.0547
831 9 5.89143 21.2044 31.6803
1599 4 1.47333 18.8653 32.0931
1074 9 2.91638 21.9264 31.1208
2937 4 1.06173 24.0062 34.4336
2996 4 1.9826 20.7463 30.458
1437 4 4.34133 21.202 31.2615
1690 4 6.24161 23.6561 33.9792
166 6 4.54035 24.6789 31.1896
2606 4 3.34232 18.2597 30.2682
1262 9 -0.00958083 19.0858 32.705
957 9 6.47841 22.0756 34.4802
409 6 8.45084 18.8498 31.7863
338 6 5.7458 17.889 30.2383
2119 4 2.51574 26.2479 1.25529
2675 4 2.23619 33.1085 2.45229
1708 4 4.7088 34.077 3.18227
1400 4 4.34906 31.9932 1.52416
1606 4 3.95557 31.6553 3.97127
1004 9 0.794664 33.6505 1.79836
2372 4 6.99223 30.059 0.87787
641 9 3.74336 32.7591 2.7788
12 6 0.397958 26.5449 1.73245
1268 9 8.32162 30.8096 1.36567
142 6 1.11855 30.8299 0.474837
2527 4 0.275796 32.8721 0.519148
123 6 8.55678 27.8162 2.35902
2841 4 8.28301 32.3959 1.5215
2812 4 0.215252 27.1213 4.03873
1877 4 6.16432 25.9521 4.14923
1810 4 8.48309 30.0615 2.85383
2246 4 -0.0530544 28.0403 -0.0848282
672 9 4.40292 32.4083 -0.0518386
2077 4 3.72564 32.9213 6.30143
2701 4 7.60352 32.7797 7.12367
1718 4 6.65056 29.6432 4.70861
1583 4 1.11325 29.1311 7.05251
1070 9 5.22463 26.7902 7.24269
704 9 8.15504 30.24 4.43007
2695 4 4.44233 28.0341 4.43267
654 9 4.64783 26.3394 4.45931
1153 9 7.95694 33.1686 5.61554
1422 4 5.9117 28.1044 6.6027
1131 9 3.51599 31.4993 5.51822
2466 4 1.90483 31.0834 5.48199
1637 4 4.3975 30.2319 6.12054
1151 9 0.111461 27.9097 7.51123
1379 4 6.74634 33.9395 4.88601
1245 9 5.35425 29.0166 5.4087
1697 4 1.12336 26.6267 7.18859
1492 4 1.58811 31.544 7.96131
499 6 5.85511 33.5682 8.04731
809 9 0.836178 30.7968 6.68087
2721 4 4.34021 26.0362 6.01478
2101 4 8.41044 31.8139 4.70594
513 6 1.84918 28.5969 4.39665
2854 4 4.14883 27.2535 8.39745
2169 4 6.23049 25.9429 8.11858
2294 4 8.50652 26.9802 4.80877
2664 4 0.878173 27.5417 12.0881
1227 9 2.61503 31.0335 11.3033
1759 4 2.98953 32.3644 12.0655
1127 9 2.4288 28.0868 12.0861
1483 4 3.88219 30.7418 10.2225
1354 4 2.80483 27.8991 10.4833
221 6 1.35202 33.9476 12.0506
761 9 0.945495 32.3526 9.25961
2025 4 5.86644 31.2453 12.1953
1590 4 6.56797 30.4252 9.91811
1498 4 2.28159 29.7251 12.2211
611 9 5.43078 31.3861 10.5836
1620 4 1.22955 31.2497 10.4876
92 6 3.55384 33.9201 10.3129
2882 4 5.45792 32.8632 10.0541
318 6 6.79554 26.9558 10.3368
1081 9 3.47706 26.5876 9.73062
606 9 7.90898 29.9951 10.6181
1503 4 1.4944 33.8008 9.66018
2800 4 7.56312 29.3148 12.1189
17 6 6.81195 33.9753 11.5547
2844 4 8.51441 26.1242 12.5645
223 6 0.132939 26.2014 10.3383
2845 4 4.59352 25.9588 10.7367
515 6 3.18125 29.284 8.56582
2979 4 3.61567 29.7374 16.5972
895 9 7.156 32.2533 15.3582
2050 4 6.76752 27.5127 16.1073
488 6 5.27603 27.2725 14.3223
1301 4 5.60725 31.9858 15.7222
1820 4 5.76899 29.3251 14.0767
806 9 6.63049 30.2436 13.231
2614 4 1.77791 33.237 14.913
1214 9 0.187963 32.6668 14.9278
2859 4 3.13782 27.0539 16.3533
2020 4 7.64706 31.2088 14.0453
2939 4 8.2069 31.4237 16.4592
1367 4 7.69004 33.7241 15.0714
442 6 3.50385 29.4849 14.3831
29 6 4.34662 32.7177 13.9273
517 6 8.10587 28.9839 14.9826
2765 4 0.319506 28.6982 14.3308
217 6 3.68393 31.9341 17.2057
75 6 5.95217 30.1716 17.1244
1756 4 0.289611 31.1399 15.3769
277 6 1.05426 26.423 15.9815
2261 4 3.33022 27.4559 13.2613
1932 4 0.952681 27.0967 20.571
63 6 0.338685 31.1096 21.3139
1021 9 6.36802 31.8566 19.9163
74 6 3.22048 30.3156 20.0902
1568 4 5.00806 27.9105 18.1224
1111 9 1.77065 33.6717 19.5769
1403 4 2.46326 28.2812 18.7543
698 9 0.889092 27.8212 19.0443
1287 9 8.42025 26.6087 19.5077
2346 4 1.91196 32.0171 19.5492
818 9 6.08989 26.8856 17.3605
2956 4 5.05675 31.2947 19.2199
2193 4 6.46827 33.5513 19.9665
2410 4 7.78665 31.3374 19.2577
1575 4 7.15085 26.4065 18.5204
2423 4 0.356592 26.7104 17.9966
2977 4 2.80844 34.0591 18.2527
2682 4 6.51442 31.1491 21.3905
2699 4 0.219234 33.9484 19.0163
2861 4 7.90459 26.2944 21.0465
378 6 0.290203 31.8386 17.9552
486 6 4.1701 33.698 21.5067
697 9 3.53087 28.3126 17.4336
2973 4 0.0132304 29.2 19.1263
2599 4 2.21171 34.506 20.8706
2772 4 8.09946 29.419 23.8617
846 9 6.15411 33.6274 24.3194
2628 4 2.8213 27.215 22.5054
435 6 3.15989 29.6455 23.5458
995 9 6.61255 29.0001 24.4469
168 6 7.96242 31.3801 25.6437
2898 4 3.93551 31.5147 22.4192
117 6 2.15995 32.3734 23.7311
1078 9 5.46855 31.1751 22.651
1698 4 5.5811 29.647 23.2739
2181 4 2.36449 26.2442 25.0771
2128 4 6.19651 32.0873 23.7991
2786 4 1.09896 29.3102 24.947
1883 4 0.302504 33.4863 22.9698
569 6 6.06171 27.5571 22.0688
2452 4 6.38234 27.4099 24.3144
1458 4 0.230008 27.6889 23.006
769 9 1.49575 27.9993 21.925
2156 4 2.39047 31.526 25.6586
2208 4 7.77912 33.9723 24.6936
33 6 4.73868 26.143 25.5045
2130 4 1.86437 29.512 21.7735
2796 4 5.44958 33.6842 25.8327
1167 9 2.66682 25.891 23.534
1807 4 6.37855 29.769 25.8308
858 9 1.25462 30.4347 26.143
2895 4 7.69964 33.4355 29.8154
1011 9 2.88793 29.9398 28.5742
2407 4 7.6402 29.4858 29.5408
1898 4 7.25841 27.01 29.0033
249 6 4.71083 31.2927 26.3787
2829 4 1.83472 30.9605 29.2671
185 6 1.96579 33.61 26.5771
1757 4 2.92994 33.0198 28.9519
537 6 6.08779 28.8336 27.9139
2915 4 4.6418 26.5068 28.1293
1721 4 5.21988 34.2365 29.847
1511 4 4.41185 30.2896 28.4132
1890 4 2.17774 29.4281 27.1531
727 9 3.74991 34.3692 29.0433
1469 4 2.77513 28.602 29.6028
364 6 2.55993 27.257 27.3442
579 6 5.86216 30.8088 30.1119
1148 9 2.07647 32.3567 30.1963
2655 4 3.07784 31.506 33.8603
1232 9 6.385 30.1245 33.9893
1968 4 1.43276 31.3763 31.65
2461 4 4.505 27.5438 31.4581
899 9 5.68537 27.4626 32.5749
1666 4 7.0724 27.5911 31.613
903 9 3.15179 28.4833 31.2249
2784 4 1.93581 27.8654 32.0681
1893 4 5.58902 28.686 33.6078
1936 4 4.43104 33.9479 34.3461
2540 4 5.58884 31.4921 33.8923
2878 4 3.5348 32.4647 31.3003
403 6 2.29284 26.8967 33.8872
599 6 0.0393406 32.6225 32.9821
726 9 2.92817 31.2823 32.256
2221 4 3.63178 29.9156 31.7561
1472 4 7.67621 30.2489 33.0084
28 6 0.338741 29.3516 32.0234
2290 4 5.70455 26.047 33.3316
2263 4 0.858809 33.4069 30.3324
815 9 7.80666 28.0047 30.2065
516 6 1.91537 25.9031 30.8166
1789 4 15.3391 -0.0479327 2.00977
1897 4 14.783 6.91269 1.89143
2021 4 11.6233 1.4227 0.534217
2537 4 9.71693 6.28674 3.33772
2922 4 9.83837 7.44255 1.07794
160 6 16.0455 3.87427 0.424783
2322 4 8.87655 2.43941 0.158953
1291 9 11.3982 0.617275 1.84991
129 6 10.6226 3.5331 0.946098
2880 4 13.0029 5.89658 3.92769
1635 4 15.8783 2.28026 3.29239
1818 4 14.5171 4.33287 2.35225
1083 9 15.7361 0.644586 3.53008
2417 4 11.0739 1.70457 3.03958
667 9 13.6868 5.74412 2.45308
2586 4 12.4281 5.76615 1.38664
677 9 15.2662 3.70207 3.67438
1162 9 15.198 6.98763 0.219613
928 9 10.4086 8.50678 -0.0876112
701 9 8.92067 6.31955 1.8628
2801 4 16.5996 4.61428 4.21703
2240 4 8.8701 4.8939 1.16514
296 6 11.2585 6.95065 4.94725
2809 4 9.60645 5.77106 5.80145
519 6 14.7267 6.96419 6.61847
1174 9 12.3537 0.899108 7.04456
1235 9 11.1628 2.29825 4.58007
1412 4 12.9404 5.4328 6.54149
1281 9 9.52163 0.877011 6.47173
2879 4 12.8954 2.10713 7.94642
1710 4 16.4388 7.05358 8.21674
2158 4 9.74915 2.08109 5.35934
1704 4 12.1046 1.31753 5.49281
306 6 15.1052 2.76925 6.95892
1920 4 14.2481 3.63299 4.90247
2750 4 11.6317 3.80602 4.72784
794 9 9.0812 5.83382 7.42321
149 6 11.9381 7.37798 8.15309
1017 9 12.9385 4.74039 5.13659
506 6 11.5513 4.10134 8.18545
2969 4 10.7769 0.462926 7.48916
1603 4 16.8046 4.96513 6.73731
2432 4 10.3452 5.88573 8.4257
1339 4 16.6455 1.41575 7.55446
1277 9 17.0275 5.52015 8.25637
2284 4 14.9609 0.0380344 4.72781
1384 4 13.1937 8.41015 6.28516
837 9 8.62434 5.89672 4.52914
1785 4 9.66463 6.19202 11.7663
1967 4 9.29613 2.24456 9.68984
845 9 16.5839 0.812226 8.98551
193 6 13.6127 1.40827 10.3212
2848 4 8.97554 2.06473 12.4417
1700 4 16.2217 4.43992 9.2023
1435 4 13.7614 6.91398 11.8901
1965 4 15.2312 8.15299 10.1497
2834 4 16.0963 1.84495 10.1944
1514 4 11.2872 1.16316 11.256
2264 4 10.7865 3.76516 11.4808
1073 9 10.0274 2.28656 11.2394
1128 9 13.8413 8.3427 10.9637
2889 4 16.3231 3.79933 11.8615
643 9 16.7793 3.40536 10.4393
754 9 10.4964 4.99766 12.5613
536 6 16.4256 1.46723 12.6434
948 9 16.4756 8.49702 9.14168
2610 4 9.55198 4.39667 13.7073
1293 9 13.0989 6.66521 13.3693
2373 4 12.7856 8.20438 14.0141
707 9 13.7118 4.67175 15.4655
1975 4 12.3398 5.04106 16.0655
2458 4 10.9853 -0.0823474 13.5968
1003 9 11.3286 0.76066 15.0011
2059 4 12.8559 1.20478 15.5809
2127 4 13.8598 1.20098 13.2522
2940 4 14.1521 5.83072 14.2808
2081 4 9.57244 7.9384 16.6845
2312 4 10.7077 2.21178 14.5653
1161 9 14.1478 1.79956 14.76
449 6 11.3679 3.16562 16.8868
832 9 9.26488 2.7404 14.0407
1479 4 15.5956 1.35886 15.2832
2084 4 13.8837 3.34976 14.4998
1689 4 15.0179 4.70344 16.4882
2947 4 16.9976 6.43073 16.836
287 6 16.8125 2.94243 16.3004
365 6 16.2081 5.37872 13.3093
230 6 8.77022 7.26164 14.3133
2304 4 14.5215 7.20749 17.0449
2067 4 11.8186 5.66862 13.1273
1964 4 17.1541 7.30522 14.3206
2430 4 10.7277 -0.0258055 16.2362
1027 9 12.6259 6.78507 20.2316
2183 4 17.0029 7.76075 19.7537
2321 4 11.6058 2.77929 19.5981
1576 4 16.4954 5.76566 21.3883
1778 4 16.1606 2.06832 20.8261
2925 4 13.5505 1.54655 20.6058
622 9 15.5302 6.00858 17.2842
1669 4 9.15442 7.36929 20.4261
2068 4 12.8776 7.83832 18.9807
2071 4 9.58013 4.06516 20.7966
792 9 10.7174 4.19034 19.5606
720 9 13.762 8.44556 17.8042
2414 4 16.1321 1.98611 18.1776
2108 4 15.7651 5.75216 18.8479
2498 4 11.8 5.41335 19.8234
955 9 11.9288 1.56065 20.6518
1121 9 16.7138 1.27862 19.4075
2386 4 9.86123 4.26298 18.2265
635 9 16.9185 6.17268 19.8575
2428 4 13.9954 6.43927 20.9935
1663 4 11.6423 7.55448 21.2857
1956 4 11.4583 0.0964805 20.203
76 6 14.6222 0.179521 17.427
743 9 14.6888 2.25929 21.5396
19 6 11.2189 6.54868 17.4069
2754 4 10.0539 6.04335 22.6442
1991 4 11.5582 1.8516 22.1756
350 6 16.1347 3.63667 24.3193
2918 4 14.9798 0.326825 25.2559
2173 4 9.21991 1.15822 23.2469
884 9 14.4788 0.21485 23.7413
2082 4 12.9056 6.14633 25.2513
1106 9 9.33221 4.63331 22.3406
2684 4 11.3615 1.74053 24.7826
1165 9 14.5384 6.12847 25.0699
1365 4 14.5061 1.75993 23.0908
721 9 14.9111 5.39749 21.8522
1815 4 15.0388 7.70822 25.1931
1613 4 10.1188 3.65753 23.4581
663 9 10.5896 2.10788 23.4682
2822 4 14.714 5.67863 23.474
788 9 11.7367 0.145178 25.0033
724 9 10.1227 7.42922 21.7802
181 6 9.08563 5.09786 25.5059
2484 4 14.5749 3.89021 21.5993
1065 9 15.643 1.05515 26.5682
451 6 10.5917 1.88856 29.9151
341 6 12.5377 2.18956 27.1336
201 6 15.9571 3.74452 28.1478
2617 4 10.3843 3.02716 27.6804
58 6 14.9294 6.49998 28.182
2982 4 17.1406 5.63641 28.6426
1194 9 11.9986 6.70284 26.4994
2714 4 10.9304 5.49702 26.961
2167 4 12.849 7.3928 27.6821
2107 4 16.7983 0.746884 29.6798
1843 4 16.978 1.85578 26.0636
2311 4 12.5917 4.37094 28.5276
731 9 13.1087 4.48757 30.196
885 9 10.9196 4.38124 28.2583
1864 4 10.1889 5.05672 29.5022
285 6 9.25287 1.52843 26.7189
474 6 11.4276 7.1696 29.5104
2022 4 14.6414 1.91704 27.447
1452 4 9.70037 0.122343 28.4988
2220 4 14.7362 4.41299 30.0483
2892 4 15.4046 5.41256 26.1446
1362 4 11.048 7.98164 25.91
2705 4 9.19716 2.57897 31.5031
2734 4 16.4229 6.10064 34.4483
1332 4 9.05451 6.26829 32.1103
2341 4 13.8775 6.42403 33.9891
2109 4 15.0437 2.48222 33.5231
307 6 14.9814 6.04619 31.7456
2865 4 12.4908 3.11514 30.9107
1410 4 11.7528 4.79585 33.6423
310 6 10.8003 5.10308 31.6937
2225 4 12.5879 0.614281 31.3808
2990 4 11.671 7.57146 34.0677
2499 4 16.358 0.00754905 33.1536
986 9 16.4053 1.70916 33.1994
361 6 11.0931 0.484655 33.233
1539 4 12.793 5.98687 30.8462
585 6 12.8448 2.89444 33.3772
2276 4 16.9976 2.24476 31.7687
1041 9 12.3187 6.09005 34.3541
138 6 14.4964 1.88889 30.7309
165 6 8.56709 4.52518 33.412
535 6 12.6409 12.0617 0.841693
1500 4 12.0312 12.1197 3.31498
2080 4 15.7447 15.7645 0.619652
546 6 10.6452 9.9484 2.85571
2814 4 13.4446 15.9171 1.77531
304 6 16.1052 12.084 1.6485
931 9 13.4693 11.5153 3.86214
1617 4 15.5107 14.8279 3.01591
820 9 11.7882 15.6883 1.53599
2033 4 10.8521 9.94648 0.561161
1198 9 10.8784 13.3585 3.22105
1455 4 13.8642 10.5129 2.68673
312 6 13.1522 9.2883 0.853267
1804 4 11.2703 14.1805 1.82377
1100 9 14.7242 14.8869 1.55145
1506 4 9.42567 12.7266 3.07049
1486 4 14.4393 13.3959 0.978895
1445 4 10.8918 16.7076 2.41929
242 6 15.5963 9.21676 3.26666
1798 4 14.4857 12.7583 4.12953
1019 9 16.9186 9.24312 0.217539
20 6 9.90543 13.7406 0.161134
2546 4 11.4292 16.0247 -0.0646225
1530 4 15.3216 8.6092 -0.0840988
2698 4 16.6389 10.845 -0.0207356
2638 4 17.0152 10.7411 4.22698
674 9 15.9022 16.0982 6.45992
1732 4 13.1608 10.956 5.42456
1446 4 16.1825 16.9834 5.12303
1709 4 9.17453 11.1418 6.93341
54 6 8.61782 13.3122 7.20244
414 6 8.84793 11.2524 4.60785
1056 9 12.213 9.56708 5.90924
2445 4 9.62448 16.1902 5.96614
2433 4 10.7276 13.4789 8.46114
1651 4 11.9245 15.3316 6.83113
1107 9 10.1476 10.4128 7.9535
155 6 13.3021 13.0162 6.20234
2620 4 11.7174 10.2009 7.39234
2064 4 11.9327 16.894 4.76764
2739 4 14.6253 12.7263 8.06496
851 9 11.0765 15.6369 5.44704
1373 4 15.0585 14.6936 5.78524