ITEM: TIMESTEP
150000
ITEM: NUMBER OF ATOMS
3000
ITEM: BOX BOUNDS pp pp pp
6.4506502145219713e-01 4.1892214479853756e+01
6.4506502145219713e-01 4.1892214479853756e+01
6.4506502145219713e-01 4.1892214479853756e+01
ITEM: ATOMS id type x y z
496 6 4.06618 3.59713 4.84661
1573 11 9.7032 4.47015 2.38261
66 6 2.67102 7.80993 2.25533
1980 11 1.4251 1.64013 4.36069
1378 15 9.43922 6.73463 1.83815
1575 11 5.01279 7.40078 3.62496
1890 11 6.98896 4.023 4.03201
2363 11 2.24399 10.7871 5.61132
1207 15 6.79521 6.2432 4.45725
227 6 9.3132 1.94045 1.49492
375 6 6.26042 1.02831 3.15342
808 6 6.04047 5.20247 1.65694
2111 11 3.88011 10.535 2.08199
1642 11 3.70075 3.46293 2.20326
1842 11 8.62128 7.48829 3.85838
2227 11 5.28579 0.859813 5.62034
2545 11 2.06371 4.78842 2.45052
331 6 10.6733 9.40388 3.76158
761 6 6.5143 9.7255 3.08371
662 6 10.2518 5.49019 5.24627
1719 11 6.68388 2.49898 0.65711
2266 11 10.3298 10.1662 7.37947
2776 11 3.68381 10.2497 8.67254
2053 11 9.94103 6.67113 8.40702
1409 15 5.021 2.68759 9.50764
1811 11 6.79016 1.31589 8.98377
1458 15 1.12188 2.08637 9.00688
1693 11 3.21016 1.44467 9.77862
2643 11 0.783851 3.85669 7.65267
350 6 7.67072 9.03729 7.965
2200 11 6.9914 8.22946 10.5517
141 6 7.01609 3.0564 6.64108
1748 11 2.82394 6.47923 9.61948
1263 15 2.69914 5.18694 7.83853
189 6 9.69946 1.08008 9.03608
1840 11 4.60484 3.83529 7.70932
2106 11 9.62006 3.3137 6.90655
2386 11 6.62354 6.67233 6.61162
1121 15 10.8284 4.55372 8.20485
666 6 0.830891 8.36925 7.21487
2721 11 10.7192 3.79654 10.3582
1774 11 2.63472 6.54791 5.99816
1251 15 0.850461 6.60692 10.8248
1023 15 4.75218 7.98289 5.84074
2152 11 6.08694 10.0859 5.85039
2033 11 7.55441 3.46547 15.1483
2445 11 4.3782 1.69531 14.2069
1723 11 8.52089 5.87558 12.5428
168 6 9.12573 0.970169 15.718
1249 15 7.10411 10.2321 11.2908
856 6 5.22221 4.43493 14.3473
2414 11 8.56088 10.3895 12.9258
1951 11 2.01724 4.85648 13.6747
1394 15 8.61789 5.27325 14.672
305 6 4.87661 6.25148 11.1196
2927 11 4.8934 6.9151 13.8421
156 6 2.38136 2.96806 15.6528
1506 11 5.61973 3.61977 11.3562
2131 11 1.44436 8.15778 12.6166
1555 11 0.840204 1.17894 14.1538
927 6 7.25575 8.18414 13.5643
736 6 2.52837 2.54386 12.2923
1004 15 2.78223 7.02952 13.9216
2774 11 9.10623 1.90858 12.6019
2950 11 5.02341 10.8196 12.0133
794 6 2.28161 10.4007 11.2818
1467 15 8.38279 3.71446 11.1846
22 6 6.41622 1.13103 12.8269
284 6 9.83617 8.13538 11.0905
2215 11 8.13247 7.01367 15.9529
2717 11 10.9453 4.9272 14.9217
2522 11 2.18161 7.72185 16.039
1897 11 6.74714 9.68466 16.4131
2402 11 3.00134 1.38625 17.8579
680 6 2.29138 5.78954 18.7286
2203 11 8.54699 1.37674 21.0568
2719 11 9.85122 3.88379 18.3122
2307 11 6.5298 1.50358 17.6791
1649 11 2.41741 9.55472 19.2483
2590 11 7.27482 4.67791 20.7362
2020 11 5.01152 6.82115 19.1256
46 6 9.43005 9.38405 16.7613
1255 15 9.25604 3.57502 20.4973
864 6 10.5932 6.40765 17.7372
425 6 7.14657 4.73953 17.5768
240 6 5.26142 9.71418 19.0076
1103 15 4.69332 2.82321 18.6537
2886 11 4.35879 4.50795 17.1761
811 6 1.28651 2.39842 20.1063
1130 15 0.990785 8.91856 17.694
1927 11 8.95525 7.81222 19.5297
2343 11 5.55525 7.73186 20.8155
899 6 9.16534 10.2945 20.6385
868 6 4.80559 7.78746 16.4915
1213 15 7.65657 6.91369 20.9291
2948 11 10.7868 0.677874 17.7236
1223 15 4.86401 0.851116 16.2368
1028 15 1.6924 10.3799 23.8995
380 6 6.6372 9.3599 23.4054
2758 11 6.15444 8.00601 26.2328
1320 15 3.06385 1.66952 23.2045
1181 15 10.4679 8.12365 23.9492
1690 11 9.81942 9.12604 25.9015
1212 15 8.62117 1.2991 23.3894
145 6 7.51947 5.62518 25.1011
3 6 2.94087 7.56425 22.33
2605 11 10.7874 0.705051 24.0806
1569 11 1.01797 4.07143 25.0592
2232 11 3.81602 9.72923 23.832
547 6 5.96393 3.30951 22.6358
1170 15 2.42107 4.08226 23.1762
2193 11 3.70108 1.14818 25.2828
1990 11 8.51559 7.17098 23.0388
1428 15 4.72369 6.25813 26.0544
1584 11 4.81391 0.845961 21.5801
2768 11 4.23425 5.63851 23.9069
2674 11 8.18013 3.34174 24.1077
69 6 10.6821 4.17367 24.9159
1648 11 10.9427 4.0199 21.9168
95 6 10.564 6.55366 21.4413
390 6 6.70996 1.85933 26.3625
1949 11 1.67637 5.15685 21.4675
792 6 5.01533 8.29717 29.1227
2718 11 5.61621 5.75421 30.7974
1977 11 1.75199 2.86659 28.9425
2292 11 5.4972 4.55212 27.1258
1976 11 8.20611 2.76819 28.4164
1543 11 2.78604 6.82727 27.1258
2304 11 7.86674 8.78415 29.0018
2224 11 9.31456 5.98559 27.146
1389 15 1.65683 7.63932 28.9765
218 6 7.99641 5.51459 29.4369
2405 11 2.55003 9.54511 29.2871
1100 15 8.33222 7.93477 27.0628
1199 15 10.2494 2.29785 28.097
1276 15 3.27255 2.01725 30.1044
1429 15 5.66301 3.69556 31.2604
2365 11 5.39911 2.24523 29.4407
11 6 10.2254 10.4134 29.9552
637 6 2.99608 3.21321 26.5475
231 6 7.68764 1.42249 30.6344
848 6 3.41179 5.14923 29.2176
2524 11 1.52308 6.54719 30.8787
1640 11 10.9116 1.392 30.1168
2509 11 5.77896 10.3719 31.2788
685 6 3.65835 9.81531 26.613
509 6 3.44305 5.91418 32.945
718 6 1.50767 3.94977 36.3121
2259 11 3.56877 8.59738 34.0582
2463 11 6.83164 7.02451 35.6031
1059 15 5.84241 8.66972 34.1964
2619 11 0.940218 6.31913 34.6091
415 6 10.2626 3.64667 31.8138
1431 15 7.21627 8.42483 31.8805
2841 11 6.16034 10.2283 36.1433
691 6 9.26418 7.00239 34.3478
2004 11 3.65801 3.06422 32.2053
2688 11 7.31311 3.13871 32.5867
2031 11 9.7709 4.89408 36.2399
1670 11 9.67826 9.13727 36.3126
2627 11 8.65262 10.1472 32.8738
1618 11 1.43731 1.15457 35.6295
2796 11 4.11944 3.62004 35.5806
638 6 7.02802 3.97801 35.2672
936 6 4.29821 0.827657 34.9801
760 6 1.39672 1.01538 32.6841
981 6 1.8062 9.54773 32.0187
2159 11 7.43227 0.801073 35.0619
2426 11 9.3816 6.28978 31.6418
131 6 3.26391 9.71627 36.5524
2928 11 7.01539 8.28027 38.9441
1520 11 2.10416 7.58299 37.8592
221 6 5.54758 8.85568 41.2176
1370 15 7.48355 2.95582 39.8747
1109 15 2.71837 8.08936 39.975
1044 15 4.36825 3.0146 37.6116
2034 11 7.94681 7.05409 41.5547
1986 11 2.61351 3.85832 38.6575
2572 11 3.60666 10.0186 39.5227
1922 11 4.05451 6.63454 40.9982
2151 11 9.55572 3.87271 40.0588
105 6 1.6704 5.38279 40.713
633 6 4.62903 6.42469 38.0986
1967 11 6.2736 4.15841 38.4441
800 6 8.79927 6.16417 38.5038
891 6 8.94825 9.48984 40.3987
452 6 4.1189 3.3137 40.932
832 6 1.6879 1.34748 38.81
1809 11 0.839684 8.21461 41.1393
1326 15 7.6756 8.69102 36.8703
1328 15 5.10417 0.742994 38.432
2621 11 7.48493 0.873804 38.9298
1237 15 2.32791 11.4059 3.38973
169 6 7.23635 13.2796 4.81153
2829 11 7.39404 21.1541 3.2373
2870 11 8.9804 11.5895 3.48982
474 6 5.59697 16.6521 1.99334
2781 11 6.58645 14.0072 2.25147
1497 15 3.25216 14.6709 5.38797
296 6 9.16488 16.3437 0.970625
1277 15 8.44549 19.3193 4.02849
1124 15 5.29598 19.9008 3.98701
1620 11 4.04299 16.4689 4.63962
2742 11 2.49677 13.5497 3.53786
2525 11 4.12222 19.4089 2.27427
2684 11 6.62348 18.0699 4.40311
1108 15 8.16704 12.5034 1.70395
2716 11 9.83205 18.4528 2.59047
544 6 2.28749 17.2838 2.76749
2039 11 0.946003 18.0152 4.91749
208 6 4.7514 12.8656 0.79453
724 6 2.09316 20.9219 0.939284
795 6 1.96363 20.814 4.95661
1941 11 8.13257 15.3906 6.53524
30 6 6.79178 19.5396 7.61431
2332 11 8.29621 18.5732 9.86231
754 6 6.2556 14.617 8.43436
1917 11 10.6893 15.4746 10.5454
2462 11 5.31501 16.9739 8.36676
1123 15 5.03453 11.7672 9.88625
1867 11 1.68514 15.2361 7.08203
557 6 2.13136 12.61 8.24624
1035 15 6.38211 17.209 10.2169
1680 11 7.26638 11.6868 9.58536
1268 15 8.90161 20.6898 10.3219
314 6 3.14993 17.9787 6.91714
940 6 2.96779 16.3533 10.0834
2052 11 4.16466 13.7329 10.0593
2086 11 8.93759 13.6065 7.24996
2392 11 2.02587 18.7958 9.30192
966 6 9.82615 17.2774 7.82701
1516 11 4.84539 13.3824 6.3521
2925 11 9.12763 19.7191 6.01157
1271 15 4.25251 11.2345 6.58239
342 6 9.30136 12.657 10.9098
323 6 2.97657 21.1975 10.7607
1759 11 4.48829 20.2038 5.96301
500 6 4.89032 13.9653 12.6188
1914 11 8.94466 17.7191 12.9926
2910 11 5.19454 18.724 11.6161
1227 15 9.06685 15.858 12.1092
155 6 6.69664 11.5147 14.4689
1234 15 2.50158 14.8718 15.2188
1876 11 9.60855 14.2978 13.7923
2119 11 1.9645 19.1088 13.3742
2338 11 3.44206 16.0235 13.3343
1996 11 7.04368 15.2302 11.2175
1395 15 3.88921 18.2117 13.449
2024 11 6.19123 14.134 15.0104
2092 11 4.91086 18.5863 15.2835
1142 15 8.23554 14.5891 15.615
2860 11 2.83345 12.5712 14.5835
628 6 6.74242 16.6672 13.9903
159 6 10.2205 18.0158 15.2986
2892 11 1.22284 11.8609 13.5369
990 6 6.3405 20.2263 13.7469
2772 11 8.17975 20.6411 16.092
112 6 2.66397 20.6542 15.8506
2585 11 8.99588 13.2391 17.2522
1514 11 5.75893 19.5273 18.738
816 6 8.84715 18.943 18.3087
2755 11 2.93166 13.6522 20.2171
411 6 2.39667 12.092 17.378
2419 11 3.56954 15.0763 17.051
928 6 6.537 13.0862 18.5579
408 6 9.93732 15.752 18.4253
447 6 1.54063 16.4759 18.1902
2347 11 6.27305 15.2619 20.3131
2186 11 2.14563 19.0643 18.0748
2217 11 2.53258 15.6077 20.6144
2454 11 9.44243 17.2599 20.4996
1386 15 3.46089 19.7833 19.4501
2372 11 6.54182 11.3279 20.6438
371 6 5.62143 16.9578 17.5012
2241 11 8.13218 16.7436 16.5754
611 6 5.95168 20.8597 21.1815
2271 11 5.24873 11.1728 16.7961
626 6 10.3364 11.6518 24.6645
1118 15 8.45336 16.2272 24.3576
2168 11 7.65989 14.928 26.1262
2982 11 1.29128 12.1804 22.638
1891 11 4.79791 13.9684 24.2144
2564 11 8.96311 14.6948 22.679
2026 11 7.00277 17.4756 23.1392
1987 11 1.24396 11.0127 25.9491
321 6 4.0353 11.6448 21.9645
1424 15 6.31192 13.0816 25.5791
890 6 10.5729 14.6116 26.2792
2416 11 3.20756 17.4974 24.4521
2931 11 3.45443 18.7834 21.4467
578 6 10.4745 19.3549 22.1202
137 6 5.52876 17.0246 25.7746
2380 11 10.2101 17.3663 24.9698
127 6 2.08709 14.8086 23.5899
2234 11 7.69182 11.6479 24.6279
175 6 8.20802 19.9407 24.9895
476 6 6.62617 13.3347 22.3746
1203 15 7.84756 16.2719 21.4241
301 6 0.86594 18.3843 23.1153
122 6 4.57091 16.3053 22.2969
1196 15 2.27527 16.9071 26.3812
2872 11 7.57597 17.7204 28.0097
1652 11 10.0535 21.0031 28.3573
756 6 10.5112 17.6314 27.8557
2595 11 8.15169 12.8402 30.1509
286 6 2.55011 15.273 30.0946
2521 11 5.4328 12.1611 27.4636
394 6 6.96927 14.8288 28.7783
1960 11 5.81901 19.3856 30.8506
1822 11 1.45665 17.5691 30.9109
758 6 3.75924 18.4497 29.0912
1504 11 3.76386 16.1033 27.7147
2069 11 1.58529 18.9443 27.2413
369 6 4.12728 12.1095 30.2525
1579 11 5.176 14.824 30.725
261 6 8.04912 11.3075 27.8302
2951 11 1.47782 12.9916 29.0873
1950 11 6.40724 19.2263 27.2301
143 6 8.34255 18.2291 30.6971
326 6 2.92417 13.4997 26.5664
2497 11 10.8782 12.0559 27.724
2751 11 10.8942 18.747 30.6463
1912 11 3.28393 21.1459 30.1497
598 6 3.69478 20.56 26.5824
23 6 10.2267 14.382 31.5679
707 6 6.33408 17.9149 35.0513
1031 15 5.96218 15.0799 32.6596
1382 15 10.0076 14.0903 36.4115
1230 15 7.48064 11.7223 31.7922
1154 15 2.08621 20.647 35.3988
502 6 2.30597 14.405 34.1048
2187 11 9.17879 18.9898 34.5073
1800 11 8.57445 15.6055 35.7893
2749 11 2.44696 12.3183 32.3698
2228 11 5.15758 19.7923 32.6813
1309 15 9.44562 16.861 33.9041
2251 11 4.61621 16.117 34.0866
2602 11 3.62784 19.1256 35.797
533 6 5.03023 14.7321 36.4312
1973 11 3.0236 12.5907 36.1631
1549 11 10.1739 13.0454 34.4013
2443 11 6.64308 13.1046 33.5854
717 6 2.90056 18.0137 33.2644
2379 11 8.03872 16.0378 32.348
181 6 8.3646 11.3762 35.528
767 6 4.2754 11.2743 34.0905
1669 11 0.984622 20.457 33.4709
190 6 5.44123 21.227 36.2846
903 6 7.81747 20.9973 33.1496
2196 11 2.15218 18.9753 40.2883
1763 11 6.96485 16.9047 40.7656
1726 11 5.54226 13.8365 39.5219
766 6 8.22549 14.4936 39.5091
1314 15 1.57465 15.2059 40.515
2519 11 10.2929 16.609 39.8265
1321 15 1.99409 20.6772 38.7008
2256 11 9.26847 12.6463 37.9925
1032 15 5.32839 15.9589 39.6634
2645 11 3.62033 15.9639 41.2394
1901 11 4.8492 17.0896 37.7866
429 6 8.79696 19.5111 41.5373
570 6 6.69035 11.0631 38.9732
897 6 2.93469 12.6384 39.0261
266 6 10.3525 21.1558 37.5891
2442 11 1.07527 15.1589 38.2602
2093 11 7.72816 20.3088 37.7289
719 6 2.09096 17.5933 37.6217
787 6 5.15353 19.2188 40.8167
2430 11 1.68596 13.1797 41.3204
960 6 9.3282 17.9567 37.1044
1001 15 0.924088 12.9085 36.8972
2926 11 7.09861 10.9718 41.6257
2054 11 9.73266 13.5562 41.7823
1698 11 9.60572 25.9184 1.57794
2587 11 9.76035 24.3313 5.2234
1871 11 3.57585 23.5405 4.20152
2056 11 5.20613 30.714 4.69585
195 6 9.03069 29.4557 2.32528
2786 11 4.30947 27.2684 4.93282
1252 15 1.97951 24.7201 3.08744
712 6 3.93761 29.3345 2.84258
62 6 5.07012 22.4333 1.79914
2 6 5.18175 26.4276 1.3235
2631 11 0.888558 23.4292 1.52684
1208 15 8.91137 25.7658 3.77568
1788 11 6.51527 28.9795 1.5784
2289 11 1.08252 29.2068 3.84937
1599 11 6.81057 24.9473 3.11047
2274 11 8.774 27.7222 4.67003
1112 15 5.19514 25.0802 4.67627
1776 11 2.56947 26.692 1.95624
1350 15 0.926127 28.1527 1.8769
714 6 7.94494 22.2824 5.62287
110 6 8.52127 23.192 1.42014
2357 11 9.55349 31.4729 4.32495
695 6 3.22069 24.2705 7.02532
1284 15 6.41387 23.8096 8.79117
2116 11 6.21577 24.1341 6.42876
1655 11 7.62561 25.4878 9.52374
1527 11 10.4691 27.0611 8.81361
2048 11 5.95125 28.6969 7.74382
1450 15 4.43295 29.119 6.27098
2793 11 1.958 26.3331 8.67142
923 6 8.175 28.327 10.4243
86 6 1.69869 27.414 5.84978
974 6 9.93268 24.1953 8.41942
973 6 3.69017 30.1523 9.45516
2978 11 1.013 22.3216 7.15027
1653 11 2.48939 29.6157 7.13364
515 6 7.64026 26.5146 6.74105
798 6 4.71896 26.6816 9.75312
1633 11 4.52401 23.7264 9.54427
609 6 7.33763 31.4495 6.37668
2894 11 7.66288 21.9725 8.75469
2676 11 8.73397 31.226 8.92107
1338 15 4.86296 28.4064 12.3582
1870 11 7.84376 24.2529 14.8498
74 6 7.323 27.8156 14.6747
1994 11 4.53844 29.3541 14.376
723 6 2.36209 25.4677 11.2604
2105 11 3.6967 22.12 13.641
1346 15 1.89159 23.256 13.6987
2298 11 8.90563 30.1727 14.1475
1204 15 8.96196 22.395 14.8171
614 6 1.96888 30.0571 13.7174
2422 11 2.90291 28.2381 11.3129
1261 15 8.46947 31.2092 16.0092
1830 11 8.58685 21.6534 12.3382
2126 11 5.83323 26.3712 12.42
945 6 8.44681 24.3673 12.0395
2882 11 9.87444 27.2741 12.2234
1662 11 2.39759 25.3021 14.1888
87 6 5.08223 24.5392 14.4598
2578 11 0.716544 27.3161 16.038
1714 11 1.04059 23.0538 11.7191
1713 11 6.05485 30.0216 11.2052
896 6 10.3654 25.425 14.2947
135 6 9.7454 29.0452 18.6252
1140 15 6.50425 21.3348 17.5067
1416 15 1.4703 23.2722 20.0705
853 6 5.35888 30.8974 19.4591
2577 11 1.24969 30.3053 19.9082
2014 11 7.56044 27.359 19.6761
1137 15 0.788159 30.5269 17.8904
687 6 0.728589 27.5174 19.7503
2856 11 5.83523 26.3308 16.8055
618 6 8.15917 25.4179 17.9462
1736 11 4.14838 28.2476 19.243
2212 11 6.68356 29.877 17.2484
604 6 4.43448 24.4944 18.5235
2907 11 7.09059 22.9311 19.1908
2583 11 3.4486 22.0096 19.7945
1018 15 9.10216 22.404 20.2186
1293 15 6.15517 28.0004 18.2334
906 6 10.7554 23.8705 17.6092
2182 11 1.91228 25.0878 18.9415
1577 11 9.97912 27.2585 16.5973
2906 11 2.46611 30.5583 16.5164
1552 11 9.83451 24.5214 20.4801
280 6 3.3829 27.5832 16.186
2634 11 4.99017 22.4514 16.5158
2384 11 10.5172 31.5163 17.5812
2897 11 10.5874 21.325 19.0382
2062 11 2.09312 27.9714 22.3129
1390 15 1.57045 28.2599 24.4123
710 6 5.72476 27.6991 25.5012
1637 11 4.68636 30.4716 22.0578
743 6 3.35819 31.2671 24.2726
2799 11 5.9176 21.9988 24.45
2515 11 8.9684 30.9152 22.8827
277 6 3.02925 25.2755 23.1825
1626 11 4.52906 24.906 26.1336
1696 11 8.09732 24.8252 24.6302
621 6 7.43103 25.0202 21.9205
1308 15 4.20849 28.4291 21.6698
2286 11 6.40198 30.322 25.4981
1451 15 9.01095 30.275 25.2253
2335 11 4.90686 22.9019 22.946
1849 11 8.74305 26.7424 24.8347
2397 11 1.96845 21.6907 24.9184
1813 11 5.47973 26.822 22.6653
279 6 7.84159 28.1666 22.1746
2767 11 1.04422 23.5031 22.1797
2740 11 10.626 28.3929 21.4882
2677 11 3.12269 28.7829 25.7878
778 6 2.75138 21.3028 22.4269
699 6 10.1366 23.3171 23.6351
2340 11 8.65214 21.4127 22.1022
1954 11 0.695761 26.5161 25.2876
1117 15 9.86094 26.2299 31.001
352 6 4.35288 30.6669 27.6541
2120 11 7.78431 26.051 29.7628
153 6 4.5237 25.0878 29.2191
1515 11 9.14694 22.0971 26.863
2188 11 3.05323 30.8985 29.9771
149 6 2.09893 23.7924 26.7354
268 6 2.11153 28.3585 28.3663
274 6 8.7587 24.9485 27.4364
1845 11 4.32013 22.1269 28.7769
684 6 1.05628 22.785 29.6802
2864 11 8.23819 29.8539 29.119
1052 15 2.03556 25.8474 31.3336
2787 11 5.0701 28.022 28.3942
1280 15 10.4201 29.1844 29.013
2969 11 1.69549 25.5889 29.1747
1180 15 6.80419 28.0591 29.6668
1803 11 9.45662 21.5565 30.2647
2715 11 10.7158 28.2122 31.2061
2537 11 10.569 27.6253 27.2148
485 6 6.9484 21.2846 28.9253
60 6 3.53209 28.8059 31.4604
2373 11 5.82597 23.4205 26.4339
2456 11 9.58603 25.3546 32.9843
1734 11 1.28338 23.883 32.5038
965 6 6.99009 25.6821 32.368
206 6 8.78592 30.3563 32.642
1495 15 5.83606 28.5861 34.1345
424 6 8.48164 24.8995 35.6781
114 6 3.84002 22.3427 32.9665
2233 11 10.1132 22.1769 34.9963
2520 11 3.04827 22.6095 35.8235
705 6 3.79296 25.3058 35.0575
73 6 1.20703 31.3997 36.4147
2310 11 6.28976 26.5353 34.9249
1008 15 4.6455 31.0875 34.9924
2088 11 6.47677 23.1389 34.1421
2501 11 6.7771 30.4824 35.0748
1553 11 3.64903 29.1585 34.3473
1556 11 1.01001 25.8971 35.6863
772 6 1.09584 28.4482 34.6312
2850 11 6.26048 29.0847 31.7916
2691 11 6.3494 22.9976 32.0677
2529 11 1.0749 27.8188 31.9221
1875 11 4.16995 25.6724 31.9435
1147 15 5.0423 25.0643 39.2788
1388 15 1.55134 24.1857 40.7671
2055 11 6.12458 23.4827 37.9856
1607 11 9.43347 28.6563 40.6814
406 6 6.31748 28.0183 37.3123
1374 15 7.5023 22.0994 39.1028
1084 15 9.18621 29.7696 38.6055
1815 11 6.08783 29.86 39.4483
2108 11 9.41962 23.239 39.4166
2868 11 9.13759 27.9293 37.4605
2161 11 3.94389 23.9965 40.9725
2941 11 6.75811 26.4028 40.1535
2708 11 3.88284 31.5109 36.9985
1355 15 1.52999 26.909 37.6187
586 6 9.5612 25.9653 39.4166
1071 15 7.1681 28.5738 40.807
629 6 3.26447 29.66 38.9526
1568 11 3.74708 26.585 38.1388
2800 11 1.50708 29.4697 41.2974
2652 11 6.85799 21.4984 41.1316
1684 11 0.752382 28.9954 37.8914
1625 11 3.62857 32.1414 1.37939
2975 11 2.01074 39.4591 5.17051
1162 15 4.69247 32.5067 3.4413
1519 11 5.10719 39.9594 2.03622
2748 11 7.79083 38.0592 3.75917
219 6 4.66606 39.5685 4.63173
2383 11 2.62903 36.3898 2.08183
107 6 1.67863 36.1924 5.34522
2724 11 10.0224 34.751 2.62945
298 6 1.66714 33.2552 3.21954
1490 15 8.97656 39.822 4.657
2955 11 6.29299 36.5843 0.711351
234 6 5.43646 36.04 3.22572
2895 11 8.91395 41.7502 3.80462
2399 11 6.53333 33.2052 2.44915
1408 15 6.92942 38.5914 1.68786
2324 11 3.6107 33.9272 4.57995
1344 15 8.44577 33.316 3.81137
574 6 9.86978 36.1752 5.17654
939 6 10.1975 37.3618 2.24969
75 6 2.71449 41.8125 1.57747
2937 11 0.701904 40.0863 1.7111
2385 11 0.740771 36.2777 2.7599
2785 11 10.9344 38.8209 4.76459
1971 11 7.70282 34.1769 5.71186
2778 11 8.04344 39.8929 6.92341
1709 11 4.88072 32.2472 8.35526
440 6 8.34607 34.1878 8.61884
116 6 2.05331 39.9799 9.8976
784 6 4.80446 34.6791 6.90345
1598 11 9.34586 36.7799 8.17531
2810 11 5.48721 36.2148 9.15964
1040 15 4.07875 37.5998 7.88106
2420 11 1.91842 37.7802 8.44408
818 6 6.83459 39.6468 10.3474
2279 11 4.72144 39.8396 8.30932
333 6 10.5321 39.3031 7.79113
1439 15 4.47189 33.9737 9.99605
1075 15 6.30693 41.0967 7.21248
2582 11 1.20578 33.4126 8.6485
793 6 6.98834 37.2714 6.64485
1006 15 6.59544 31.6025 9.63406
1856 11 9.4521 39.9686 10.7738
264 6 10.6798 32.2247 6.75507
462 6 2.36043 32.0484 6.12272
602 6 2.98684 41.4842 6.84872
2523 11 6.61687 33.7057 10.8459
2846 11 4.43758 37.0623 5.80539
1054 15 2.50663 33.9163 13.0558
1057 15 5.72659 38.8986 13.4771
1493 15 10.4187 41.2902 12.2107
2066 11 1.58533 35.7978 12.2922
1065 15 1.93038 40.3805 13.4853
975 6 9.07755 38.3928 13.6416
2763 11 7.17915 40.1134 14.6179
1847 11 9.13455 34.3182 12.8699
803 6 8.90791 31.7032 11.7127
1862 11 6.87159 37.4921 12.2478
1600 11 4.64683 37.7192 15.0103
780 6 6.54086 35.0069 13.9359
2391 11 4.46342 39.9857 11.9691
961 6 3.60046 37.3072 11.3179
1611 11 3.96729 34.2152 14.6599
819 6 9.07345 36.4748 11.0299
2671 11 9.12334 36.4335 15.6111
1210 15 10.5243 35.3783 14.084
2620 11 7.09866 32.9044 15.8277
1769 11 1.75487 39.3856 15.7023
2706 11 3.07159 32.4762 11.3208
93 6 1.97049 36.7474 14.9055
1975 11 0.802286 32.688 13.9141
2923 11 10.7152 40.5634 14.3154
132 6 5.14353 32.0572 13.313
2091 11 1.30363 36.0092 17.9034
2822 11 7.40209 32.6531 20.0252
860 6 8.80717 33.919 18.0274
1488 15 10.0779 37.1591 17.5379
2192 11 8.71928 38.884 18.4642
893 6 6.59911 40.7097 19.4142
2377 11 4.47634 39.0362 18.2115
1347 15 5.82409 34.1743 19.6701
579 6 2.51712 32.2164 21.1627
182 6 3.83934 36.3954 18.8759
270 6 3.01257 40.4008 20.0627
1593 11 6.642 35.7666 18.5333
2017 11 3.98326 33.1019 19.0184
747 6 8.60803 36.3811 20.713
70 6 10.432 32.8134 20.4833
2491 11 10.5754 35.5494 19.0243
129 6 6.68538 38.002 17.0498
1302 15 0.734137 35.9063 20.0785
607 6 1.64625 33.5684 16.5124
1375 15 3.96705 39.7141 16.1441
1974 11 2.18767 37.3564 21.0941
1114 15 10.8249 39.9219 18.5672
283 6 4.74516 32.0914 16.514
2863 11 6.401 38.7501 21.1179
506 6 8.94202 39.7367 21.4672
677 6 8.50502 39.3897 25.9252
2701 11 10.5884 35.5941 25.9966
1288 15 10.5157 36.2812 23.8528
1601 11 3.9775 39.0049 23.6098
1916 11 5.99282 33.8179 24.9533
2431 11 5.21867 34.9822 21.7369
1744 11 9.38202 38.0666 23.6905
689 6 7.02962 36.2867 23.5391
1129 15 5.5153 40.1274 22.5491
2599 11 9.62844 34.7297 22.5349
1313 15 1.34915 37.9274 25.6788
2022 11 7.13655 40.9783 24.0998
1447 15 3.60581 36.7742 22.8975
599 6 5.06248 39.7308 26.14
315 6 6.91208 32.8541 22.5064
2199 11 2.70893 35.9218 24.9551
1188 15 6.82129 32.3566 26.2646
2702 11 1.33291 41.5749 22.1981
1502 11 9.0835 32.4344 26.3192
894 6 10.7725 33.0114 24.3787
997 6 1.25237 41.5154 26.3373
593 6 9.46308 39.9166 29.2905
2095 11 2.7367 39.3506 27.253
529 6 4.39307 34.7365 26.761
1483 15 2.97135 36.6217 28.936
1733 11 2.31693 32.8851 26.8499
1574 11 1.75266 37.7944 30.4618
1754 11 8.63918 37.1941 29.2278
2446 11 2.80258 41.1154 30.6396
1415 15 6.86856 38.1723 28.3583
2968 11 5.10314 37.6814 29.76
2563 11 6.19522 32.9416 28.2992
676 6 5.45926 40.3692 30.4351
1361 15 1.62957 39.7673 29.2675
577 6 6.28233 35.2017 30.0549
545 6 9.15956 32.4916 29.3865
2852 11 3.28298 34.4093 30.1509
2158 11 7.06317 40.3572 28.174
1486 15 2.25244 32.7221 29.0906
102 6 5.53705 31.7949 30.933
391 6 7.9566 35.2047 26.9702
2001 11 10.8969 34.8776 30.0052
2728 11 6.22728 37.2001 26.4949
2828 11 10.9363 39.7939 27.017
162 6 3.45985 37.7924 33.1215
2901 11 7.99905 38.5646 35.033
1596 11 4.2774 32.6953 33.3439
2096 11 9.67311 32.7592 36.5306
2935 11 7.55835 33.2069 32.2312
281 6 1.81293 33.2816 32.5009
1989 11 3.49479 36.8681 36.1202
1198 15 7.11059 40.5741 33.6359
1300 15 10.1195 37.6564 34.852
2353 11 4.99106 40.1685 33.2271
2656 11 5.40616 36.0968 32.7429
716 6 9.29911 33.8292 34.0519
862 6 6.06332 37.0406 36.093
2871 11 9.97062 36.2833 33.1122
1248 15 6.02601 34.2214 33.5818
2303 11 1.02844 35.7004 33.2025
1832 11 6.76466 34.448 35.601
2594 11 1.01527 39.0001 34.1745
370 6 7.65808 37.7522 31.9125
287 6 10.3202 41.5268 35.6807
2029 11 8.37811 40.4121 31.9336
2265 11 10.7556 36.5421 36.6568
38 6 0.728199 36.7567 36.2715
1343 15 0.678253 40.3881 35.8089
534 6 9.3584 37.9445 39.9392
2439 11 3.98178 37.7245 39.5118
1358 15 3.54279 38.5598 37.5912
1254 15 5.87039 36.4658 39.6916
2584 11 3.69412 41.4742 40.1094
1904 11 1.33891 39.4936 37.7703
1900 11 7.43167 37.3058 38.4381
2614 11 9.04422 32.889 40.7468
2403 11 5.00855 40.157 37.0089
941 6 6.31693 32.1215 41.2002
59 6 3.46004 34.6041 37.4789
2488 11 10.6534 39.6711 38.6017
2939 11 1.8451 32.5202 39.5173
692 6 3.1271 34.7319 40.7475
2732 11 5.53962 34.395 39.2382
113 6 6.07937 41.2179 41.215
290 6 7.91458 39.8461 37.3864
2313 11 10.8948 35.7302 40.3039
663 6 8.5366 34.7992 38.4084
17 6 6.85487 32.1207 37.1766
273 6 2.63141 38.5343 41.8186
1676 11 0.837333 35.8322 39.4069
1182 15 1.6007 31.7323 41.5594
2162 11 8.38446 39.5487 41.8331
1336 15 10.4108 34.0318 41.836
1995 11 15.8011 6.65661 4.46569
2769 11 11.9664 7.70635 5.42734
2297 11 18.0219 3.97912 3.95087
2849 11 16.8721 6.22769 1.07993
56 6 16.3793 1.89511 3.43089
2993 11 20.3057 1.38934 2.08864
1934 11 14.6175 3.84541 2.61
613 6 13.6561 4.91776 4.94747
1379 15 16.3302 5.14247 2.99842
651 6 19.4304 5.33796 1.86849
435 6 19.1935 1.41825 4.62784
1828 11 11.4209 3.70895 3.30097
2685 11 19.0764 10.224 5.51242
1911 11 15.564 9.94555 4.76635
493 6 17.8236 8.14784 4.15957
2839 11 11.5473 7.53786 1.40556
334 6 14.6474 8.10934 2.35794
2586 11 19.5194 8.26661 2.13586
2220 11 15.4044 10.6118 1.29272
635 6 12.53 5.08169 1.07656
895 6 11.1749 1.36639 5.27019
1475 15 21.255 8.44204 0.695841
1592 11 18.9237 1.0275 7.53883
422 6 12.6023 6.2003 10.4534
2711 11 15.4606 2.27669 6.74226
1021 15 19.1026 8.64054 7.02275
1442 15 19.9624 4.11772 9.48249
161 6 17.5885 5.50907 6.15697
531 6 13.4589 2.5087 9.02836
2115 11 12.9782 4.87243 7.71279
2202 11 17.0299 8.17472 7.58245
2295 11 17.8331 4.24674 8.7729
2101 11 20.1977 9.34471 8.84056
1214 15 12.2442 10.6648 8.70439
1473 15 17.1314 2.02898 8.25682
571 6 18.364 7.44441 9.77182
1716 11 13.0131 8.41565 8.8197
1183 15 11.3047 8.08837 7.38298
567 6 16.8464 10.7237 7.48487
488 6 14.6334 8.20582 6.53772
2617 11 19.7687 2.17319 10.6667
2252 11 20.0075 6.90201 6.02881
2490 11 12.279 0.676535 7.47616
2727 11 20.2901 5.79619 10.881
1510 11 13.2532 1.7992 14.8737
1536 11 11.9734 7.72035 12.5999
1372 15 15.2528 4.88929 12.5698
2965 11 12.0662 8.20593 16.0707
1462 15 17.254 8.06461 12.7823
2622 11 15.7311 9.77559 13.3528
426 6 19.3148 4.61006 13.2744
1443 15 17.9524 1.01504 13.0426
994 6 11.7295 3.02126 12.8975
1908 11 18.7344 9.32994 11.7623
658 6 14.7193 1.06038 12.3961
2792 11 16.149 6.79911 11.3096
2623 11 16.8193 3.63108 13.3218
1097 15 17.1664 10.9362 12.0135
1602 11 18.0711 7.10113 14.5589
1240 15 12.2285 6.75353 14.5334
2236 11 14.5021 6.07316 14.4147
594 6 15.5482 8.34498 15.6353
770 6 11.5957 10.3851 13.3899
2516 11 20.1489 1.22311 14.0076
412 6 20.6169 7.34372 13.5645
2452 11 13.9103 3.7949 11.439
1399 15 15.346 1.90513 15.8143
210 6 13.9582 9.18501 11.3987
254 6 16.4102 5.13273 15.8737
550 6 18.1215 4.80712 19.0549
2166 11 16.2046 7.08542 18.1026
1474 15 15.0963 2.19857 19.2572
1962 11 16.0544 5.6714 21.227
2991 11 17.2078 1.90902 19.5942
646 6 14.0824 9.26549 18.4788
2190 11 14.2692 4.04532 18.2878
2743 11 12.8503 6.93712 19.8874
967 6 11.5426 1.34481 20.7531
2658 11 13.933 2.02799 21.1216
1691 11 18.6212 9.58759 19.3294
828 6 16.7859 8.44925 21.1577
1970 11 20.8627 6.12935 18.0969
1049 15 14.8172 5.99912 19.3751
150 6 18.8101 7.77659 17.312
1096 15 20.6397 4.57134 16.5894
569 6 18.6943 1.2291 16.5983
624 6 12.1188 2.98537 17.0598
1529 11 14.4035 10.6438 20.628
2766 11 18.6659 3.87721 16.2161
1778 11 15.7202 10.7861 17.1056
2184 11 11.6471 10.681 17.8169
2710 11 16.8294 1.31656 23.949
121 6 16.6775 3.25446 22.204
656 6 18.9652 0.805731 22.4572
606 6 13.4082 8.614 22.3663
2818 11 14.1661 3.87458 24.9403
2855 11 15.9205 8.21655 23.7427
1279 15 20.9253 2.44361 25.864
1751 11 17.8802 5.08842 24.1604
1107 15 19.5848 4.87519 22.9187
2816 11 20.4955 9.66927 22.1454
2309 11 12.0623 6.7619 24.2634
1000 6 16.8814 3.20298 25.9375
1485 15 16.0739 10.2529 24.5
2756 11 19.9709 6.75339 22.0411
338 6 18.4769 7.91695 24.7431
265 6 15.4621 6.22447 26.1465
2080 11 19.5036 3.29047 21.3866
998 6 14.0257 1.45102 23.7832
1969 11 21.0474 8.78878 25.4614
809 6 13.5649 4.71323 22.286
1861 11 10.9664 9.63059 22.4178
1851 11 20.7723 0.685979 24.5419
2107 11 17.3265 10.387 26.3762
1940 11 21.2033 4.28932 24.5546
1160 15 10.9838 0.692325 26.3873
1144 15 16.5122 8.79818 27.7869
2277 11 17.2453 0.948064 31.362
554 6 11.8458 6.95272 27.0372
2683 11 12.2077 8.36338 30.2413
437 6 13.241 3.18669 30.2235
1658 11 15.4332 3.33331 28.3328
2102 11 11.8198 4.17764 27.8268
733 6 14.5093 10.8708 31.0034
590 6 14.7805 7.35759 30.5173
806 6 17.9951 4.37294 29.5309
2820 11 14.4141 8.37486 27.6567
1946 11 20.5863 5.32938 29.7839
423 6 13.3694 10.6599 27.2714
2661 11 17.8141 6.98173 27.3355
1687 11 16.8004 9.60157 29.9006
201 6 18.7898 7.6613 29.9147
2011 11 19.3337 2.53366 27.1808
1544 11 16.5356 5.542 31.355
48 6 20.1134 5.55909 27.1084
1192 15 13.7103 3.13735 26.8984
1725 11 13.4013 0.895377 26.6594
2348 11 11.6279 7.97872 33.7925
1206 15 13.3853 1.04598 34.2177
1606 11 13.7166 0.901965 31.6635
222 6 15.7777 3.18074 32.3216
2378 11 19.3014 4.20478 33.3224
1892 11 15.2374 2.12263 34.7766
478 6 14.4995 6.59417 34.0999
1042 15 11.5529 3.69876 35.8734
1836 11 15.3644 8.95825 33.138
2451 11 13.4815 4.8139 36.2347
2154 11 19.0177 7.87031 32.738
1024 15 17.3631 10.0115 32.317
2005 11 16.9002 6.07224 34.9399
1101 15 15.0365 9.76324 35.2842
775 6 19.6278 5.85009 35.5843
1356 15 17.8902 5.89917 33.0026
2660 11 16.9819 10.4985 35.7625
2989 11 11.4583 2.57281 34.0236
2851 11 19.8674 1.20251 34.6711
851 6 17.5862 3.56195 35.507
991 6 11.8974 7.14211 36.6297
302 6 11.563 10.6495 33.6632
526 6 20.0497 1.97695 31.9904
2180 11 20.5964 8.42238 36.3172
1211 15 11.5168 7.07954 31.8591
508 6 21.0989 9.71992 31.9179
1857 11 12.7866 5.14253 31.8614
1420 15 12.044 8.03291 40.5175
2084 11 11.4751 2.04532 37.4547
1349 15 19.187 1.72235 41.4819
1643 11 17.7308 9.21577 39.3936
1413 15 15.2001 9.24265 38.9803
2016 11 13.5142 3.48217 40.1968
1681 11 14.3708 7.82133 40.5616
1957 11 19.9544 3.88701 37.3619
2641 11 17.2722 5.96391 38.7331
1414 15 18.3623 3.98482 38.7845
1171 15 18.1934 7.09939 40.4687
2876 11 11.1757 0.749366 41.1369
642 6 14.2059 2.07811 37.4349
653 6 14.3871 5.65659 38.5612
1702 11 19.4192 3.8435 40.8277
1686 11 16.9436 2.4332 38.1836
872 6 19.163 0.660054 37.2964
244 6 16.1259 3.83468 41.0716
2336 11 11.3908 6.36163 39.1479
1159 15 11.4597 2.61804 39.7444
2510 11 11.3913 10.0964 39.8924
2281 11 14.4818 8.22383 37.0677
2036 11 20.8511 6.77426 40.4403
307 6 14.2591 1.07364 41.6899
874 6 20.2364 9.85637 38.8505
833 6 17.5598 7.99279 36.778
1902 11 21.1138 10.5385 41.2533
922 6 18.2948 10.4732 41.8264
2206 11 17.0205 1.528 41.7984
247 6 17.3683 14.2732 2.1207
1581 11 19.2816 19.9342 2.02862
2044 11 18.5895 15.9507 4.42938
2308 11 15.4373 13.4534 3.56965
1742 11 12.5806 16.6956 2.1549
2410 11 16.0985 16.4692 1.03466
660 6 19.0947 18.9469 4.38575
431 6 12.7536 14.0585 3.07256
2487 11 16.3502 19.439 4.39222
1441 15 14.8462 20.899 3.94858
207 6 15.3994 16.1367 3.54885
2976 11 19.3906 12.5918 2.39746
269 6 17.6668 12.0408 4.62006
89 6 16.8838 18.8713 1.77366
1285 15 14.6626 11.3367 3.20437
1935 11 15.0121 21.0089 1.78523
2555 11 12.7775 20.2965 4.55846
481 6 12.4917 19.7381 1.81595
1628 11 12.5269 11.49 3.35763