ITEM: TIMESTEP
150000
ITEM: NUMBER OF ATOMS
3006
ITEM: BOX BOUNDS pp pp pp
-3.0713203169714731e-01 3.2509788137298031e+01
-3.0713203169714731e-01 3.2509788137298031e+01
-3.0713203169714731e-01 3.2509788137298031e+01
ITEM: ATOMS id type x y z
1969 4 0.263887 6.00146 3.20574
2886 4 1.80457 2.23724 2.25975
956 2 6.31261 4.80381 2.23153
1897 4 2.59733 4.33607 1.60253
897 2 6.31011 5.72566 -0.195607
1581 4 4.82474 4.94284 2.27365
2876 4 4.22005 2.61827 2.09207
277 6 5.61096 2.3185 0.20806
298 6 3.42979 6.80929 1.73526
1494 4 6.84665 5.31038 3.54582
627 2 7.36647 2.62348 2.91971
734 2 3.14854 1.82568 2.75071
1164 2 1.58398 3.36811 1.6585
1522 4 6.77527 5.73434 1.15146
858 2 3.90263 3.97626 1.98891
1769 4 6.84778 3.40418 1.86328
2731 4 3.3425 0.36257 2.61269
2426 4 0.293668 3.61494 1.24693
2259 4 4.42618 -0.0198001 0.489537
1768 4 7.76271 1.28042 2.77973
607 2 0.0684501 3.60031 -0.181784
1145 2 2.27392 1.70911 5.17542
1386 4 2.91849 7.16765 6.22103
2224 4 6.64182 4.57078 5.91072
2870 4 2.98213 4.86838 6.70763
1205 2 -0.0367295 1.30945 5.72393
1314 2 2.9334 3.50665 6.74814
2604 4 0.889832 1.36499 4.68744
374 2 1.99201 5.92186 6.46535
2786 4 1.14249 5.64406 5.35176
2213 4 1.98985 2.69356 6.31154
2920 4 5.13148 -0.0982468 5.64796
2222 4 4.53861 7.51401 4.49821
38 6 -0.30668 7.63692 7.08861
2198 4 1.12794 5.97578 7.71139
237 6 5.52175 2.46501 5.33156
2994 4 2.78231 0.529284 5.92312
2241 4 6.91821 2.31565 7.10704
1462 4 3.23546 2.19647 4.20066
257 6 5.31483 6.19792 6.47146
1295 2 7.39005 4.49921 4.62688
544 2 6.96382 3.95563 7.22726
502 2 3.89435 -0.0359819 6.39513
1499 4 4.09812 2.90851 7.29169
474 2 1.16852 6.36032 4.17873
2622 4 0.102101 0.53673 6.8021
1258 2 3.11641 7.64208 4.93373
1586 4 7.33211 3.05041 4.20373
204 6 -0.218855 3.96408 7.21124
2479 4 7.09623 7.80816 7.89225
1539 4 2.31405 7.0195 3.812
867 2 1.51499 5.75927 9.07245
2566 4 1.15703 4.3792 9.4309
2393 4 2.86686 6.0955 9.48491
1325 2 4.82666 3.20126 10.9632
2262 4 4.18845 3.4353 9.60175
2931 4 6.36429 3.58741 10.9654
694 2 4.76935 3.54947 8.39353
975 2 0.645544 4.04971 10.6582
2434 4 4.64031 1.78325 11.3936
949 2 0.118565 6.34309 11.2412
2825 4 0.22228 4.98505 11.5464
1750 4 0.272695 1.10707 9.27072
1752 4 0.325005 2.76475 10.9765
2928 4 5.52003 0.855392 8.43243
2836 4 6.94465 1.25832 11.308
782 2 3.68292 7.15429 9.13338
2088 4 5.0182 7.05905 8.87512
225 6 6.74932 5.59836 9.93876
46 6 2.66151 1.33896 9.04037
1961 4 0.584753 6.73183 10.0162
2349 4 5.86932 4.27676 8.18151
1075 2 7.27317 2.59391 11.0386
711 2 5.64617 0.946663 11.7225
1892 4 4.10618 4.13482 11.8263
612 2 -0.243401 1.60915 10.4423
1882 4 7.78089 0.300102 8.05194
1037 2 6.6724 1.20687 7.90947
1372 4 3.0315 3.21559 15.1998
1613 4 3.07906 6.93497 14.2931
1633 4 4.81937 2.19636 14.0348
1965 4 5.2701 4.66049 13.8044
1723 4 7.06967 3.18876 13.9414
339 2 3.51624 2.22003 14.4475
1377 4 2.67124 1.15075 14.0251
135 6 7.0378 1.0524 14.7135
41 6 1.39476 5.66985 13.4911
89 6 7.421 7.71782 12.93
794 2 5.68662 3.38451 14.3496
2505 4 0.899185 4.33717 15.3338
2303 4 1.14088 1.98454 15.5876
1604 4 4.37446 6.41808 12.2269
403 2 1.76859 3.35596 15.8342
859 2 4.58489 5.08801 12.6411
2466 4 0.332056 0.2221 14.2006
944 2 3.93781 7.40151 13.2357
959 2 1.54205 0.695161 14.8194
2339 4 5.77314 3.55261 15.9656
1082 2 7.75919 4.35764 14.2685
2444 4 5.42984 -0.189834 12.4465
393 2 -0.26374 2.00183 16.0161
1776 4 7.83318 4.66827 15.608
1512 4 6.17578 0.128805 16.9929
1405 4 3.33949 0.106521 17.7104
2590 4 4.52377 5.94477 18.8457
432 2 5.81582 6.52815 19.1727
275 6 4.91696 1.86015 17.6271
1445 4 0.960002 4.17324 19.3919
2669 4 3.17911 4.39517 20.1237
2750 4 1.97998 3.52941 17.2703
106 6 3.58381 7.79886 17.7909
1319 2 0.873082 4.13975 18.0181
2114 4 6.89083 5.53952 18.9209
1382 4 5.29704 3.67139 19.2145
2820 4 1.97496 6.37306 19.0144
1859 4 7.36216 3.47498 17.7842
772 2 6.69122 4.18519 19.1466
1042 2 1.92462 5.23142 19.8988
1043 2 6.97742 3.92613 16.5
1030 2 4.3103 4.73173 19.4788
1256 2 1.08137 7.47824 19.0922
2141 4 3.97086 0.220048 20.1284
1302 2 0.545209 7.57359 16.7612
1432 4 1.8468 7.66726 16.243
1923 4 6.01018 7.61443 18.2273
1360 4 0.138506 7.53195 18.006
194 6 3.6529 5.31389 16.1211
129 6 6.88389 1.32392 23.3657
2451 4 1.70707 1.88521 23.4823
2802 4 1.37676 5.5493 21.2706
1854 4 3.70168 1.38198 22.2601
2249 4 1.98861 0.035457 21.4911
1637 4 0.804589 7.33872 22.7406
565 2 3.13778 1.75372 23.4864
1072 2 6.74863 7.58142 21.3304
604 2 3.23861 0.55492 21.2095
1654 4 5.89757 6.88615 20.5983
993 2 0.93761 6.84541 21.4601
115 6 0.765355 3.29807 21.4042
1730 4 7.08605 7.21371 22.6507
664 2 6.5559 7.28674 24.0017
1724 4 0.284858 7.38079 20.3856
1666 4 7.52339 3.74232 20.2888
290 6 5.6442 1.79554 27.1474
1513 4 3.57357 6.23952 27.8136
738 2 6.19213 4.98364 24.5253
530 2 4.09766 3.62237 24.6863
397 2 0.943167 2.13529 24.6883
1611 4 7.61288 3.07605 27.4491
1036 2 3.47729 4.83909 27.9443
352 2 1.98497 4.39459 25.7648
171 6 1.92303 2.09791 28.2002
2699 4 3.05578 4.46206 24.73
2912 4 1.21694 5.56689 25.7416
2438 4 1.13192 3.16895 25.5249
1691 4 2.64763 4.1509 27.0872
1756 4 7.54562 4.80307 24.6574
2049 4 5.43859 3.81501 24.6864
617 2 -0.0556081 6.10881 25.6031
1681 4 -0.145439 1.27309 24.8868
1 6 3.42018 6.98978 24.8091
330 6 1.01821 6.43435 27.93
2570 4 5.5893 6.17714 24.3568
1699 4 -0.259654 1.92902 27.6259
1974 4 7.70522 7.17381 24.9603
2453 4 3.81906 2.21657 24.5742
2847 4 3.04889 3.6287 30.9144
2597 4 1.05686 3.65709 29.648
1089 2 4.99635 7.2637 31.1529
400 2 4.16655 3.69765 30.1554
405 2 5.60954 0.707064 29.9566
2326 4 4.82389 6.60426 29.9185
642 2 1.72601 3.44273 30.8004
1973 4 7.00373 0.823673 29.5516
2640 4 7.09096 4.3388 29.3761
967 2 6.7497 3.81733 30.6591
1557 4 2.33508 -0.0325911 28.6104
2990 4 7.5615 2.68837 31.1483
2164 4 1.16521 2.93238 31.9294
1799 4 -0.168698 4.99557 32.2525
1857 4 6.94704 4.89979 31.7149
1415 4 5.29446 3.33148 30.7164
2758 4 4.65232 0.867809 29.0149
1887 4 5.35854 0.539826 31.3627
345 2 4.22847 7.13343 28.7122
678 2 7.83806 1.53895 30.4393
2331 4 4.1698 4.01202 28.7885
85 6 7.18066 6.7689 29.4651
1671 4 5.22355 6.4956 32.2165
760 2 3.8138 -0.213688 28.4199
2206 4 4.07644 13.2844 0.446811
2824 4 2.26451 13.8586 1.91852
1524 4 3.82491 9.09537 0.312784
598 2 0.297596 11.0033 0.728813
1508 4 6.12145 9.1233 0.553735
898 2 2.18852 15.0997 1.23248
1670 4 4.0084 12.1887 2.57531
2529 4 1.07319 15.3491 0.450462
989 2 5.2593 12.0022 3.19873
1830 4 1.27446 11.8212 1.28798
2828 4 1.11407 12.5063 3.51747
178 6 2.38625 10.4576 3.04502
1056 2 1.03719 12.9079 2.13998
402 2 4.9198 9.1408 1.13801
699 2 3.72748 13.4562 1.90303
2606 4 4.51626 14.5974 2.52355
2168 4 6.19022 11.114 2.83549
1893 4 4.63862 8.78768 2.51506
2290 4 -0.129643 13.5852 1.74361
559 2 -0.0151392 14.4687 0.644552
2795 4 6.27338 14.1132 0.0653964
792 2 4.2891 15.8911 2.09385
2295 4 7.8858 9.4247 3.54708
1574 4 3.07459 16.0959 1.24743
357 2 6.75492 12.6058 4.95388
2300 4 0.25591 11.6434 5.43782
1352 4 2.6614 9.05791 4.87463
1978 4 0.910166 9.57848 6.50532
158 6 5.19893 15.0645 4.71685
1801 4 5.52824 12.7859 4.30409
1103 2 0.196268 11.0201 6.72034
1921 4 0.227418 15.1664 6.02832
144 6 7.00802 9.81266 6.81225
2992 4 5.05042 15.4589 7.71786
2062 4 7.26518 11.2907 5.08798
1218 2 0.207144 12.5847 4.52367
1860 4 3.17942 9.96786 7.05824
536 2 2.26722 9.47731 6.15215
2162 4 5.79968 9.40965 4.57676
1605 4 0.926834 11.6976 7.76051
2069 4 7.36881 13.7474 5.42726
938 2 6.75999 10.2732 3.96412
378 2 5.01571 8.5482 3.84501
904 2 0.769334 13.656 11.1409
1121 2 2.16252 11.4046 11.4028
2823 4 4.69715 13.8672 9.60889
1225 2 5.93818 8.27881 8.77319
2002 4 1.86031 10.9461 9.94307
1987 4 1.27197 13.9855 9.67426
479 2 5.17094 13.1577 10.6361
900 2 0.827968 11.04 8.98956
570 2 6.88456 11.8833 9.38716
764 2 7.38531 14.014 8.29227
2225 4 7.68228 10.7788 9.33458
2784 4 6.01909 12.0843 10.438
507 2 0.400319 14.723 8.92616
2186 4 0.90142 14.91 11.7777
505 2 5.38664 15.1656 9.20744
1810 4 1.68822 12.7271 11.7792
1441 4 6.4413 8.72747 10.1063
265 6 1.14796 8.77882 10.4931
1902 4 6.82601 14.8684 9.1695
2325 4 0.803063 15.8205 8.25856
513 2 7.64224 9.54563 10.1681
137 6 5.23222 9.69266 11.8552
2984 4 6.93005 12.6988 8.26684
153 6 3.00469 12.6544 8.44848
1814 4 3.08859 8.45813 8.79665
2059 4 3.65505 11.4083 11.5741
879 2 3.87663 9.26992 8.01899
2183 4 5.24893 9.36034 8.15567
2626 4 4.70708 13.5484 11.9423
500 2 0.758189 15.4694 13.0272
774 2 3.12645 13.0947 14.7918
599 2 5.08181 8.73742 14.8668
1569 4 3.23235 8.60329 12.4264
1922 4 3.38769 14.3766 15.1058
2895 4 6.06793 9.57401 15.3342
510 2 2.34995 9.4284 13.0423
1092 2 3.95217 12.4128 12.4681
2650 4 2.0611 9.23925 14.3461
2417 4 1.55628 10.3705 12.3178
1245 2 7.45047 9.24119 15.7399
1478 4 3.97359 8.67851 15.7411
1694 4 -0.02984 11.9768 15.5328
2101 4 1.30895 14.9112 14.2093
862 2 2.47256 15.4513 14.967
2065 4 3.72227 12.3328 13.7984
2740 4 2.49235 12.2168 15.6839
771 2 2.64921 8.1063 15.0913
130 6 4.71579 15.6017 12.364
2309 4 5.24103 8.00749 13.7563
68 6 -0.211047 11.6317 13.1955
1645 4 4.80128 15.1686 19.1785
1034 2 0.733928 10.8956 18.5748
1402 4 1.95188 8.71387 19.0246
2121 4 6.72481 14.0858 18.2468
1107 2 5.97761 12.9438 18.0314
2443 4 1.42014 11.1861 17.3327
1231 2 5.98526 15.257 18.5064
2020 4 6.38552 11.9056 17.1959
909 2 1.25097 11.8218 16.1634
1179 2 4.30758 13.8091 19.5128
45 6 4.32451 10.9149 16.5334
2226 4 4.71141 12.7791 18.5818
1049 2 2.25692 9.7163 19.8584
179 6 1.44981 14.762 18.0582
2111 4 1.52331 10.849 19.8283
2859 4 2.8828 13.8336 19.5696
970 2 7.69048 11.5755 16.9118
2571 4 0.916058 16.0259 19.9736
2189 4 7.86168 10.2379 16.6916
1744 4 2.17898 16.0205 16.24
481 2 7.29866 7.92174 17.9178
2532 4 7.51619 7.97249 16.5301
1185 2 5.78607 9.60001 23.4876
2133 4 7.0792 12.9299 23.0311
525 2 3.5884 9.25243 22.0363
2210 4 7.37811 8.71628 20.8801
10 6 5.98705 10.7192 20.3683
1199 2 4.14271 12.9494 21.9235
1436 4 3.36236 9.68674 20.7238
1627 4 2.80366 13.1074 21.8903
1048 2 2.16558 13.5092 20.6902
913 2 6.01939 12.2231 23.6992
430 2 0.185371 15.0115 20.6816
2459 4 6.41037 10.801 23.6234
2367 4 4.9378 9.45049 22.3855
952 2 1.34737 8.64199 23.1843
2746 4 2.77065 8.77599 23.0009
2629 4 4.90189 13.4712 20.9357
2764 4 0.826232 13.6226 20.6124
1547 4 4.63045 12.4312 23.1397
1710 4 0.531958 9.74847 22.6682
2639 4 0.0114292 15.3657 22.103
172 6 -0.0360638 11.6842 21.1535
2654 4 1.98415 10.685 25.2889
606 2 7.74365 12.109 28.1966
1189 2 0.7242 10.9597 26.0641
2238 4 -0.0937484 9.76172 26.1644
1962 4 5.9077 12.6235 25.0992
2296 4 7.05149 14.1802 26.584
447 2 2.36621 13.9411 27.6703
2156 4 2.29733 14.546 26.4206
1895 4 2.93152 8.72185 26.5098
980 2 -0.113551 8.58249 25.312
795 2 2.50626 11.5045 27.8
616 2 2.17733 9.29603 25.4879
1662 4 1.19978 11.2918 27.4464
14 6 5.48011 15.9192 27.1879
1911 4 1.32065 8.53891 24.6886
439 2 6.65216 12.8946 26.1619
2315 4 0.0321014 12.1702 25.5817
809 2 3.13047 9.01955 27.8966
81 6 3.62861 12.5108 25.2219
2093 4 3.31066 10.4603 28.1482
2714 4 7.08838 11.8465 26.8872
2430 4 3.1133 12.7649 27.7289
1217 2 2.76424 16.037 26.4215
101 6 0.535224 14.3607 24.9554
2336 4 5.90292 8.61163 24.3971
1841 4 1.8974 8.50028 28.7728
2587 4 0.194042 11.1158 32.2027
3002 4 4.45775 15.0407 31.6645
2891 4 0.131133 14.8968 30.3704
556 2 6.36697 13.3612 30.063
433 2 1.87283 8.91273 30.0611
2897 4 5.27939 12.7569 31.1621
1268 2 3.914 9.35207 31.6991
2684 4 0.627517 9.45992 30.4642
672 2 1.16052 15.2125 29.5965
1254 2 4.77828 15.3581 30.4186
1278 2 6.41227 9.31143 31.9638
1371 4 5.13027 8.63371 31.2295
2549 4 6.58224 12.2823 29.1788
464 2 5.27433 11.4519 31.4369
2926 4 2.83336 8.74094 30.986
2752 4 5.60172 14.5205 29.5955
2103 4 6.50854 10.6986 31.5765
1162 2 4.96307 13.8466 32.3785
1359 4 4.0758 10.7895 31.3938
1925 4 7.49229 8.42527 31.4831
291 6 2.38655 12.1187 32.0691
1848 4 1.52705 14.2134 28.7547
767 2 7.38755 14.1118 32.1822
2830 4 7.52437 13.7496 30.8541
317 6 5.74421 10.2688 28.4146
1840 4 4.30202 8.42114 28.4453
1221 2 6.27588 17.5426 2.55807
1025 2 0.752984 22.6934 1.8673
610 2 5.1692 19.6323 0.0347668
1572 4 6.89706 16.6435 3.55379
2407 4 4.61068 19.885 1.36339
2648 4 4.89277 17.0234 2.3502
1764 4 0.785891 23.4372 0.678428
714 2 6.62274 17.7312 0.112494
1599 4 6.20631 18.9638 2.97551
2754 4 0.270987 21.2635 1.72648
1343 4 2.19373 22.713 2.55557
287 6 4.77118 22.9104 1.93942
1317 2 5.19705 19.7779 2.57483
25 6 2.30419 20.3024 2.31322
1354 4 7.06577 17.4834 1.32769
2211 4 4.45479 20.5139 3.47816
608 2 -0.171771 20.7213 0.598728
2929 4 6.66771 20.1053 0.11551
1829 4 -0.13591 23.2309 2.8942
1337 4 5.34072 18.2274 -0.138224
1099 2 2.08726 23.3927 3.75057
2782 4 7.01291 24.0475 1.67415
34 6 2.91098 23.9859 -0.117815
643 2 3.82728 20.448 4.83892
1777 4 4.17729 19.1134 5.41823
2388 4 4.60642 21.4123 5.55695
512 2 0.95262 17.7577 5.13694
1555 4 4.87067 23.1763 7.19016
2651 4 3.97081 16.739 6.01279
1721 4 2.27176 17.7425 4.6941
1219 2 4.12524 22.1308 6.59376
1631 4 0.715693 17.5067 6.51364
26 6 6.38529 19.827 5.81138
2460 4 0.577616 21.2739 6.26306
1905 4 2.82253 21.8482 7.00272
427 2 3.46127 17.9471 5.39198
480 2 1.94336 21.6986 5.71895
1949 4 2.43205 20.6874 4.81384
2675 4 1.76831 22.9418 4.99942
1238 2 4.34295 16.6231 7.32371
2664 4 -0.0711057 17.8651 4.29408
1057 2 0.151492 16.2338 7.00231
1213 2 -0.202647 22.1807 6.99376
212 6 2.07717 19.3496 7.69109
2097 4 3.5999 20.4824 11.3012
854 2 5.01294 20.7828 11.6325
1002 2 4.79694 17.6924 9.53068
2943 4 3.75239 18.1827 10.5087
221 6 2.90053 22.8469 10.4678
177 6 6.65859 23.3257 10.4239
2673 4 0.479986 17.9738 11.1212
729 2 6.24191 19.8058 9.40561
1087 2 3.17738 19.4497 10.5235
2867 4 4.61916 23.924 9.42549
2359 4 1.92201 19.5295 9.9725
2458 4 6.89598 20.2161 8.2622
2735 4 5.87798 20.6641 10.3964
2719 4 5.998 18.378 9.51211
2607 4 0.44912 20.2779 11.8907
1016 2 0.586911 19.4102 10.706
229 6 7.64897 16.9759 9.67442
1190 2 0.576625 24.1058 8.47411
857 2 4.72314 24.2054 8.12315
31 6 2.12991 16.419 10.1997
2261 4 4.10677 17.6237 8.24842
2086 4 0.230948 22.8453 8.1429
1648 4 5.12819 16.3095 10.0834
1704 4 2.08508 18.3161 15.1727
1910 4 3.12941 16.427 14.0309
969 2 0.682853 24.1581 15.6388
2324 4 1.35286 23.1381 14.9778
2307 4 5.5461 19.8443 12.6081
2843 4 5.19353 22.1866 12.1512
1589 4 5.84058 17.6808 13.3312
868 2 6.46203 17.5469 14.603
2491 4 6.21694 18.3177 15.661
1083 2 4.59166 22.6396 13.2948
2568 4 5.36479 23.4632 14.0319
2880 4 3.35661 22.3688 13.7714
826 2 2.26743 23.3519 13.789
2045 4 3.72752 18.774 13.5326
268 6 2.04863 20.3761 13.902
595 2 5.03656 18.7547 13.107
1073 2 2.89947 17.8083 14.2232
2488 4 0.0393186 17.2843 16.0823
592 2 7.18533 21.5665 15.9168
1940 4 1.46982 22.9382 12.6107
2524 4 -0.022277 16.5527 13.0282
1866 4 7.4219 16.633 14.6839
499 2 0.281969 23.4029 12.1397
281 6 7.7198 19.4913 12.0369
1149 2 6.41632 24.0729 16.3209
1271 2 6.96445 17.6689 18.2943
605 2 0.753286 18.5392 18.2214
2772 4 6.82955 17.9761 19.6091
2911 4 0.599562 18.4121 19.5279
2394 4 6.53101 16.3815 17.9209
1385 4 1.81609 17.951 17.5604
2974 4 4.64846 18.9902 19.6505
29 6 5.16373 21.048 18.6486
1992 4 6.76246 22.7436 16.5802
2171 4 7.75589 18.3053 17.4385
2853 4 2.47632 23.8278 19.682
2317 4 4.88559 23.7534 19.2259
98 6 3.97822 17.1822 18.0216
192 6 0.456184 20.8905 19.9493
310 6 7.74775 23.3673 18.8707
1495 4 -0.282535 19.2133 17.5957
436 2 1.39669 17.295 16.2565
2260 4 6.95318 20.4803 16.7117
750 2 7.36513 19.0465 16.301
497 2 3.31767 18.8934 20.2006
1955 4 0.419371 23.6278 21.9828
2725 4 5.80283 19.6253 23.6011
2473 4 5.25871 22.0465 23.5142
2817 4 1.81112 22.8109 23.8649
2085 4 3.77253 20.4254 22.5644
362 2 3.08094 21.2361 21.3922
220 6 6.22781 23.0371 21.7909
1544 4 0.688936 17.6315 21.8104
911 2 4.96658 20.6605 23.154
2660 4 1.74457 21.7043 21.8399
2373 4 7.3902 17.8028 23.3263
1095 2 1.28172 22.7438 22.5527
149 6 3.85478 23.8309 24.0726
2223 4 6.57923 20.2259 20.4222
2513 4 5.01786 17.4002 23.7241
845 2 1.25543 17.3647 20.4346
164 6 0.738003 19.5726 22.7476
901 2 6.02975 18.3395 22.9827
2966 4 3.94466 22.0975 20.781
1891 4 5.7034 18.2122 21.5753
722 2 0.113969 16.6388 22.5416
1134 2 5.88192 18.8848 20.3656
1031 2 7.80867 16.6248 23.9076
2115 4 2.67682 20.0934 20.4467
2011 4 2.73368 17.6328 20.3656
726 2 3.78233 23.5057 20.2657
5 6 4.56593 16.2283 21.6141
571 2 0.902197 22.9691 25.121
2962 4 5.76677 23.6467 25.2655
1059 2 3.10969 19.0698 27.7662
1952 4 6.38327 20.8369 27.7528
1993 4 3.01775 18.3658 24.7387
2940 4 0.0664687 21.8414 25.2439
2025 4 4.9883 21.2434 25.8068
1285 2 5.8376 22.1193 24.9425
2721 4 2.13863 19.1616 26.8382
2713 4 0.361842 21.8404 27.6437
2748 4 4.29987 19.8475 27.6065
2468 4 1.91956 23.1132 26.2214
739 2 1.8904 18.2093 25.6234
1309 2 3.99193 17.3874 24.6924
2482 4 0.7705 18.8247 24.9126
872 2 5.2296 20.6673 27.0329
1230 2 1.57193 22.4574 27.4702
1924 4 1.60765 16.883 26.1629
258 6 2.73993 20.8694 24.85
1751 4 3.49999 16.173 27.8527
1538 4 7.22489 21.7245 24.9007
2048 4 7.80967 16.5656 25.2805
2995 4 0.0741428 24.2495 25.0222
2024 4 3.8012 16.2842 25.413
806 2 7.62214 20.4654 27.4451
1021 2 6.36019 22.794 31.9393
2195 4 2.95587 18.2806 28.9018
222 6 3.20614 16.927 32.1114
922 2 4.10969 21.6956 31.6885
448 2 2.83237 21.9185 29.642
2914 4 7.43098 17.4931 31.8223
2677 4 0.648576 20.6224 32.2873
1260 2 7.0668 20.4825 31.6477
2363 4 3.99867 22.153 30.2706
1362 4 1.80856 21.1897 30.3051
1608 4 -0.0475823 23.8157 31.2926
1716 4 4.20426 16.6035 30.0491
2722 4 4.48076 20.3066 31.7464
1903 4 1.75461 16.3762 29.5532
2923 4 5.06216 22.6767 32.3726
413 2 1.74759 21.2719 31.6999
735 2 3.02588 16.8342 29.0261
36 6 4.93246 18.8084 30.2293
2854 4 2.78317 21.8633 32.3094
2989 4 7.20594 23.8189 32.098
2285 4 6.99768 21.808 31.2201
47 6 0.631653 18.8227 28.7053
2988 4 7.56516 19.6175 30.6737
2839 4 2.46493 22.6219 28.5213
1775 4 2.45154 24.7343 3.79347
1373 4 6.72244 29.6702 2.91446
262 6 4.79267 26.7783 0.579329
1880 4 2.68228 28.9862 2.40756
2537 4 6.75773 28.357 0.796885
1128 2 2.72665 27.8619 3.13631
182 6 -0.102478 26.054 3.05565
482 2 7.56606 24.4843 2.81908
1489 4 4.81487 29.4693 1.41154
914 2 6.07446 29.1451 1.78117
394 2 3.67464 29.987 2.24131
1503 4 2.21896 26.7502 2.55655
2779 4 3.10167 31.0873 1.46768
1388 4 1.07722 25.5704 -0.143945
2976 4 7.08061 26.0175 0.211904
596 2 2.89933 25.5026 2.59631
175 6 5.98141 31.7521 3.42561
810 2 3.58653 32.3522 1.53296
701 2 7.50331 24.6435 0.447403
2071 4 3.8045 25.1136 1.75543
124 6 2.6175 29.436 -0.0700651
803 2 7.53709 27.2482 0.675594
958 2 0.139075 24.4406 -0.152089
2146 4 4.17604 30.5439 3.5492
1226 2 4.16908 30.1801 4.89848
236 6 3.65756 25.6357 5.43262
2109 4 2.96967 29.933 5.5751
1203 2 5.76398 26.3015 7.26977
2395 4 -0.186418 30.2354 4.82164
775 2 2.51645 28.5716 5.56439
2134 4 1.11876 28.3665 5.58904
1698 4 6.11322 31.5832 7.52456
2051 4 3.1028 27.7664 6.72021
2577 4 5.349 30.2565 5.58826
847 2 7.00958 25.1133 5.21551
2705 4 5.456 27.7037 7.21173
1470 4 4.5425 25.53 7.72769
1321 2 0.0127375 28.8887 4.89961
2231 4 6.13248 25.7846 5.92707
1024 2 5.95688 31.5175 5.95514
837 2 4.13788 28.1599 7.49864
2239 4 3.24566 27.8702 4.3788
2732 4 7.2761 31.6194 5.48871
184 6 6.38243 28.0593 5.08091
301 6 1.57052 32.0175 4.28879
157 6 1.82218 30.8276 7.70288
2573 4 0.141135 25.0621 7.59212
2756 4 6.72332 24.7383 3.94147
2432 4 3.85711 32.151 7.66466
276 6 1.34792 27.1382 7.82984
1426 4 5.23065 30.4163 11.5632
2416 4 3.21572 28.0065 10.9015
2873 4 -0.00604885 24.6992 11.7499
2900 4 5.23306 31.6827 9.64638
1417 4 3.30126 30.4332 10.1843
865 2 4.51669 30.8367 10.4336
1617 4 0.62779 29.6781 11.3403
1533 4 1.70967 28.9559 9.20438
1517 4 0.224933 30.8214 9.23463
1606 4 4.04765 28.6772 8.72689
2670 4 7.4146 26.8532 11.3523
924 2 0.611014 29.563 9.88451
32 6 6.56071 29.3002 8.97654
411 2 0.950684 25.3516 10.8107
921 2 3.09512 29.0629 9.7634
1944 4 2.21807 25.502 11.3858
213 6 4.26312 26.2618 10.1876
1439 4 0.453115 26.5681 10.2178
2467 4 6.85968 26.0017 8.17538
473 2 7.48176 31.7433 8.06011
1873 4 1.20258 24.4381 9.64236
542 2 5.09875 32.3194 8.363
249 6 7.80734 28.6952 13.0109
127 6 3.68234 32.0928 13.6446
1558 4 7.51873 29.5241 15.2195
777 2 2.90517 28.0634 12.2211
454 2 2.59099 25.7257 12.7184
2449 4 6.90949 24.7318 15.2044
13 6 3.19941 26.2817 15.58
422 2 0.295306 31.9054 13.453
1957 4 1.54895 31.367 12.9044
1791 4 4.37282 31.6364 15.8296
1330 2 1.56445 30.1033 12.3563
1720 4 6.61688 25.1236 12.845
2390 4 7.32396 31.1802 12.6896
2685 4 3.0096 26.952 13.1606
1754 4 2.62597 24.7536 13.6838
2868 4 2.67858 29.3389 12.803
1097 2 6.08769 31.3612 12.2144
1194 2 7.51837 26.1823 12.5538
1310 2 6.32538 24.4544 14.0425
1514 4 2.04821 32.4221 15.7447
3001 4 1.14985 25.3943 16.0071
2374 4 6.1333 30.4956 16.9965
1422 4 1.87291 31.9303 19.3289
2424 4 0.229213 28.3057 19.346
2937 4 6.04388 27.5678 19.0449
1700 4 1.13864 25.377 18.5218
1833 4 6.35574 28.0417 16.7592
657 2 5.54094 28.1338 17.9041
531 2 3.3846 29.6717 18.2893
1651 4 2.07306 29.3699 18.3527
2818 4 3.96766 30.8525 18.8021
540 2 0.730684 26.0062 17.2511
2535 4 3.46998 25.3267 18.001
421 2 3.3437 32.1831 19.0142
1389 4 4.23127 28.677 17.7827
984 2 1.15126 28.2984 18.3239
1677 4 1.15664 27.496 17.2654
201 6 0.573274 31.3507 17.5171
2726 4 5.69899 24.7124 17.2652
831 2 4.67747 24.5509 18.1992
687 2 2.38816 24.8057 18.8128
923 2 5.60704 31.7479 16.6595
169 6 5.74399 31.4789 19.8424
1007 2 3.24656 32.3109 16.3786
820 2 6.62974 29.3532 16.2756
1324 2 5.16272 27.5334 20.176
1761 4 4.35015 26.5371 20.4363
1803 4 7.5511 31.255 23.9298
1029 2 5.77135 28.9198 22.2282
2643 4 0.0918887 30.3446 22.9391
1176 2 1.37746 32.073 20.5651
2016 4 5.39493 31.5479 23.0526
2953 4 5.27025 28.5216 23.4323
1731 4 0.114356 31.5799 20.7945
2008 4 5.15207 28.5612 21.0909
475 2 6.77966 31.2662 22.7248
2196 4 3.34475 26.3343 22.5862
1119 2 3.99391 25.7268 21.5365
260 6 1.56412 31.4605 24.1284
1933 4 6.8981 29.7659 22.1699
484 2 3.71615 26.75 23.7916
2117 4 7.26327 32.0593 21.6693
232 6 0.344059 26.088 20.9458
2693 4 4.14649 24.37 21.4875
960 2 1.52937 27.5136 24.2201
425 2 4.73373 31.2108 24.2046
2462 4 1.06919 26.1753 23.9554
574 2 4.60206 26.586 28.22
602 2 5.33342 28.8519 24.8123
2619 4 4.44471 26.2147 26.9513
1466 4 5.62687 28.0225 25.779
2311 4 0.0649358 32.3452 27.7992
554 2 0.0956417 25.5182 24.6277
828 2 1.45427 31.8983 27.8062
2229 4 3.72599 32.1028 24.5965
2346 4 1.44596 30.3589 28.0821
250 6 5.74791 30.4382 27.2728
2679 4 6.66074 25.7163 25.88
986 2 5.34314 26.4896 25.7769
1535 4 2.00473 32.0009 26.32
1665 4 4.72321 26.0876 24.4699
757 2 3.33228 32.2062 25.9987
2192 4 4.89808 30.1558 25.1413
242 6 2.24422 25.1912 27.3994
2665 4 2.83025 27.6704 24.3945
3006 4 4.27319 32.4878 26.9859
538 2 6.80027 24.4122 25.6057
1896 4 0.752858 28.5995 24.317
15 6 -0.209596 29.3879 26.8615
2961 4 7.85131 29.9524 28.3109
1054 2 1.46605 29.8542 29.3875
2250 4 6.78689 28.8742 30.166
981 2 0.0970756 28.4474 30.9514
2803 4 0.372981 29.1954 29.8528
1308 2 1.42474 26.33 31.5088
2856 4 2.57155 29.8781 30.2533
1003 2 3.61124 30.8134 30.1687
747 2 3.8694 26.6184 30.4648
2734 4 3.78668 26.054 29.2431
2448 4 3.93497 31.3508 31.4169
988 2 5.85016 27.9065 29.8006
2298 4 4.98121 27.4288 30.8233
1766 4 2.93764 26.3875 31.4077
2254 4 1.07384 27.8017 31.6616
1980 4 0.90128 25.7178 30.2239
2579 4 4.19908 31.2793 29.0324
533 2 0.12917 24.6762 30.2386
1292 2 4.50022 32.4727 31.9749
1394 4 5.72195 27.3954 28.5413
1406 4 11.4532 6.75923 1.47463
1028 2 11.0985 5.3963 1.90556
2074 4 9.96351 5.25746 2.82968
982 2 12.3141 3.53089 2.68187
1966 4 15.1167 3.76088 2.55048
2340 4 15.1915 4.33098 0.333837
1629 4 10.9487 4.59466 0.551306
2616 4 9.37786 0.88827 1.08212
1110 2 10.2298 -0.0411796 0.562702
40 6 8.70065 3.76764 -0.0424216
2682 4 11.8434 2.64826 1.63297
2789 4 12.3693 4.85974 2.5072
811 2 8.44116 0.417486 1.95315
1020 2 11.3434 3.29758 0.555006
63 6 8.09224 7.08616 2.38708
1014 2 15.9002 3.90902 1.42611
1464 4 11.108 7.81717 3.5496
545 2 11.8036 7.70334 2.34689
1561 4 11.3891 0.287017 -0.173322
637 2 14.4505 7.41439 7.27114
2347 4 15.6474 7.81704 6.78412
488 2 11.9448 2.04134 6.82922
65 6 13.0636 5.0427 6.25681
2800 4 14.8475 2.36836 4.5636
781 2 15.4366 3.42365 3.88676
2753 4 13.0403 2.5752 6.14122
529 2 12.1123 0.102212 5.42889
319 6 8.9977 1.01501 6.23432
846 2 13.3317 2.13394 4.69384
1090 2 11.6465 6.91884 4.54441
1490 4 11.0765 5.74529 4.92768
1297 2 9.90228 5.22116 4.22018
2997 4 13.1143 0.633997 4.64626
2050 4 12.8479 7.42305 5.13917
1715 4 12.5888 3.00209 3.90811
2601 4 11.3924 0.914813 6.30113
2267 4 8.76964 5.01725 4.9137
928 2 9.20217 5.30503 7.74086
1985 4 15.6543 4.40505 6.86615
230 6 15.4199 0.294944 4.90797
1796 4 10.5481 4.77281 7.71308
2848 4 8.19073 4.45293 7.71936
2476 4 14.4797 4.1869 11.3528
2556 4 15.415 4.54708 9.3565
1078 2 15.7259 4.5406 10.8317
2668 4 11.1843 -0.0586119 10.4392
1601 4 10.7018 3.77605 9.91958
614 2 9.35837 3.96076 10.4636
1975 4 8.85837 5.1478 10.9472
2520 4 14.2913 6.20655 7.90855
611 2 10.8479 3.71495 8.53625
58 6 14.8403 2.46404 8.10212
1120 2 15.8755 -0.0645926 9.51129
1705 4 14.3651 0.256977 9.4043
88 6 8.78713 0.0092093 10.1261
150 6 13.4165 5.80566 10.0449
1696 4 8.61416 2.76485 10.6336
17 6 11.9077 1.87091 11.1192
636 2 15.6318 5.30778 8.09155
2112 4 15.9723 6.00059 11.1277
444 2 8.4979 7.8796 7.98176
2033 4 11.545 2.60461 8.0273
2410 4 12.0028 5.88526 11.8373
2998 4 9.13594 6.62321 8.17518
1084 2 15.7401 6.7459 12.2793
1881 4 10.334 4.32626 12.637
2047 4 12.6257 3.75854 12.8294
390 2 14.2636 7.77841 15.8916
759 2 14.0091 3.96292 12.5899
751 2 10.0104 0.708157 13.6916
1463 4 9.80586 6.76709 12.3744
2536 4 14.7776 3.90905 13.709
818 2 9.26925 5.31407 12.3342
1342 4 10.0584 1.77519 14.5746
2323 4 16.0398 5.05716 15.5119
453 2 15.8155 4.91806 14.0647
1033 2 11.1231 6.98261 12.0623
108 6 9.18055 6.6611 15.4249
2646 4 8.24002 5.26343 13.3562
1653 4 10.9524 0.511991 12.6784
2431 4 15.5449 6.16672 13.5222
920 2 11.6307 4.67959 12.4956
1505 4 8.77362 0.0552983 13.7943
1186 2 10.3409 1.95249 15.9694
1718 4 10.9886 3.33221 16.0468
75 6 9.56952 5.80523 19.2363
1877 4 9.73164 3.93534 18.0706
2445 4 14.3578 6.54196 16.5463
2380 4 11.4942 1.12497 16.5365
1899 4 12.1466 5.71592 18.4511
346 2 15.0348 5.29123 16.3574
1086 2 15.0067 3.37779 18.3139
324 6 15.051 6.42836 19.1023
2941 4 14.3204 2.09667 18.0713
887 2 12.1804 6.07818 19.7865
2415 4 8.58326 1.94794 19.1529
1130 2 11.6083 6.4073 17.3723
1383 4 14.5208 3.94227 19.5898
2511 4 14.6539 4.33906 17.21
2056 4 9.08273 2.04624 16.783
1296 2 8.7473 2.75616 17.9339
335 2 14.7561 0.874981 18.3569
1729 4 14.3056 -0.284431 17.7638
1201 2 10.5274 4.17078 16.9509
2474 4 10.7641 5.60091 16.6105
2917 4 15.8451 0.819524 19.2582
2200 4 11.7666 7.70939 17.2146
227 6 8.44476 -0.0514616 17.4253
388 2 11.8195 -0.109109 16.9652
1836 4 12.8931 7.22414 20.19
297 6 13.1664 2.89608 16.1429
1216 2 12.5123 0.885298 23.4335
1596 4 9.59633 0.151238 21.3302
1060 2 11.6172 5.54504 22.1372
252 6 15.1963 2.48978 23.4581
2796 4 11.2588 4.34574 22.8782
1622 4 10.6976 2.26823 21.79
1202 2 14.5447 5.42353 22.3729
1063 2 11.488 3.00611 22.6416
1052 2 14.6177 3.34805 20.834
2188 4 15.002 5.66431 23.6432
2341 4 14.8629 6.34074 21.3232
1429 4 12.9465 6.08181 22.4218
2442 4 8.2367 2.10905 21.5769
1839 4 12.7961 0.322048 22.1389
1240 2 13.5951 7.03834 21.5819
539 2 15.5897 0.746802 20.7303
2161 4 9.284 1.24311 23.4925
74 6 8.88041 5.0981 22.548
874 2 8.14991 2.59844 20.3065
2575 4 12.4047 2.36602 23.4337
2398 4 14.9607 2.05646 21.0761
415 2 9.46797 1.44075 22.1341
2812 4 14.3807 4.03985 22.0792
2369 4 10.6328 6.5535 22.5323
2471 4 11.5751 5.32147 20.7439
490 2 10.1535 7.67443 21.979
2582 4 11.3898 0.267479 24.0113
2377 4 9.60982 7.72403 20.6892
802 2 10.1448 0.479808 24.2891
64 6 11.5235 0.783508 20.2426
1541 4 9.69806 -0.190293 25.482
962 2 9.73916 4.66168 26.9327
653 2 13.9729 1.18213 25.5836
1166 2 11.7241 6.21525 26.6942
1585 4 9.50362 3.44489 26.0181
1519 4 13.4855 0.560949 26.6749
890 2 14.1584 0.602893 27.9847
2977 4 14.6911 2.43668 25.6564
2672 4 11.0563 5.06633 26.8794
2578 4 12.9578 6.18659 26.2177
1098 2 8.56851 0.134836 26.1114
217 6 15.4605 6.24544 26.8136
2653 4 11.1952 7.45986 27.0834
22 6 12.8228 4.39362 24.7232
2026 4 8.85822 5.78353 26.4656
1133 2 8.43684 2.63751 26.4235
1659 4 15.447 0.00866858 27.971
2780 4 9.33397 4.30732 28.3174
2878 4 15.8975 3.14469 27.5198
736 2 15.887 2.41961 26.352
455 2 8.06417 5.97222 25.3978
311 6 13.5531 7.70933 24.4991
1999 4 8.0148 1.4394 25.8957
881 2 14.7672 3.16192 28.3843
2113 4 13.6826 0.617544 24.3706
659 2 10.0182 7.84784 27.6499
1668 4 11.4804 6.51879 30.1412
9 6 11.7022 4.29808 29.3806
2243 4 12.4198 1.04367 30.7355
465 2 9.68445 0.13255 29.5295
2547 4 14.7276 6.71307 29.1499
2308 4 9.1817 1.17499 30.3994
537 2 12.2351 0.471721 29.5469
1971 4 9.34942 7.02811 31.1859
2079 4 14.4456 4.3197 28.9165
2023 4 13.1854 -0.174589 28.8492
822 2 8.03369 3.90374 28.43
1178 2 15.1529 5.36477 29.7028
815 2 10.1937 6.87675 30.0517
758 2 15.3643 7.62022 29.9549
1480 4 14.6468 5.29808 31.1058
2301 4 9.51331 7.24325 28.889
2637 4 11.1972 2.60543 32.0904
953 2 11.7116 1.33764 31.8381
903 2 15.5648 5.06753 32.0513
327 6 15.6589 0.983975 30.4945
325 6 12.6606 6.25947 31.9326
2512 4 10.9274 0.308172 29.1265
2173 4 15.8559 -0.20233 32.2494
2402 4 14.2359 1.92113 28.7227
979 2 10.261 11.8189 1.8758
2613 4 11.5204 12.3303 2.33369
1981 4 9.31031 12.8954 1.5343
1498 4 13.516 8.53908 -0.182117
1884 4 9.59879 11.0296 2.9452
568 2 14.8275 12.316 3.51037
1144 2 13.7005 8.53253 1.15706
640 2 9.57615 13.9623 0.789215
376 2 8.91005 9.90697 2.73078
2945 4 10.4669 10.9848 0.720474
2029 4 14.9953 8.28955 1.68615
2525 4 13.0454 15.0287 -0.0051467
2991 4 9.2908 9.06773 1.5495
2617 4 12.6783 8.70154 2.04815
892 2 9.93779 9.76419 0.497091
173 6 12.5506 12.8047 0.613472
1735 4 13.7994 11.6629 2.76233
1364 4 10.8033 14.6498 0.932224
1269 2 12.472 11.839 3.2611
2749 4 8.61569 14.4265 -0.0169159
1737 4 15.9187 12.8698 2.87243
1778 4 14.9035 15.9294 0.995922
279 6 10.4921 14.0015 3.53
705 2 13.8944 12.5664 7.39876
73 6 9.66511 11.1592 5.04929
2081 4 13.5166 9.93706 5.51411
1504 4 9.76477 13.212 5.77364
498 2 14.3405 13.8815 5.36153
2706 4 11.3143 9.01548 6.22274
1972 4 12.8943 11.7477 6.82185
2552 4 9.16261 8.74993 6.9567
1620 4 12.9851 14.2687 4.83713
228 6 11.5556 14.1163 6.66758