ITEM: TIMESTEP
150000
ITEM: NUMBER OF ATOMS
3000
ITEM: BOX BOUNDS pp pp pp
-2.5015601177161884e-01 3.4488630850868830e+01
-2.5015601177161884e-01 3.4488630850868830e+01
-2.5015601177161884e-01 3.4488630850868830e+01
ITEM: ATOMS id type x y z
782 10 2.59112 2.59461 3.15394
938 10 5.56529 2.3709 2.91841
2476 4 6.25354 0.895398 2.86409
2384 4 8.22695 5.32713 3.65773
562 6 3.66257 4.91343 0.759272
1178 10 3.77933 7.82589 2.84974
2605 4 2.17826 7.9691 2.75819
2637 4 6.66956 8.4195 3.91411
2711 4 7.03618 6.23445 0.617265
2328 4 1.77865 2.10748 1.82618
2107 4 3.98279 1.73778 2.9158
886 10 0.924634 7.81706 3.73972
1464 4 5.78393 3.1801 1.6622
2062 4 2.86213 4.02141 2.90476
752 10 0.257682 2.08342 1.39761
908 10 7.87132 0.630866 3.08505
1758 4 4.29908 6.52979 2.46447
304 6 6.03584 5.16649 3.15122
1235 4 -0.183936 0.536507 1.50354
1730 4 0.159027 2.15229 -0.177132
2347 4 -0.238575 7.15996 3.05423
591 6 7.83522 8.41477 1.11215
2871 4 5.68489 0.259607 -0.242944
928 10 2.60767 6.01415 7.98964
818 10 5.43926 5.18363 7.47736
226 6 7.43122 3.24904 5.66431
819 10 4.97541 2.31639 8.12518
2748 4 4.14298 8.38532 4.25766
1237 4 5.33392 5.17737 6.00174
259 6 1.79611 1.51228 6.43367
79 6 3.56062 4.00193 5.3498
715 10 0.66095 5.80823 5.83361
2818 4 2.72799 7.4936 7.69936
2308 4 2.03669 5.23285 6.63232
1541 4 1.50447 6.82858 4.88353
1626 4 3.81921 2.16626 7.152
2160 4 5.98201 3.65802 7.87865
1976 4 6.05458 1.10999 7.59029
1399 4 6.31111 6.16288 8.20965
2844 4 1.92946 2.17583 4.46287
2433 4 -0.242243 6.49977 6.86775
2418 4 3.98232 5.12835 8.05123
1332 4 0.174496 2.74815 7.90689
2222 4 0.17457 4.6132 5.01267
904 10 7.38153 0.496402 8.25044
1885 4 8.39002 7.22462 5.33274
1155 10 8.31748 8.41997 4.21184
2741 4 5.84318 2.97567 4.24126
1294 4 7.32673 4.59843 11.0689
2596 4 7.9054 7.66849 9.90402
1110 10 0.116829 2.33515 9.39313
1546 4 4.88538 5.15312 11.3299
190 6 2.99853 0.58538 10.309
404 6 6.28032 1.02126 11.5953
2672 4 1.49418 2.15685 10.0703
2635 4 7.62657 0.884237 9.67834
402 6 5.64002 7.32679 10.3801
2463 4 1.95135 5.66052 9.25338
319 6 3.0389 3.84667 10.9024
2060 4 4.71059 2.25392 9.6535
757 10 6.04043 4.52323 12.1727
202 6 1.31032 6.89655 11.0034
2357 4 5.80775 3.08063 12.5766
1286 4 5.92237 8.38392 12.5722
2984 4 0.293649 5.09829 14.3354
509 6 7.98687 7.44436 13.3151
1556 4 6.48708 5.38044 13.3396
1768 4 2.22731 0.282236 13.0797
2899 4 7.78529 8.1551 15.652
1732 4 6.60389 5.90338 16.4469
495 6 4.72466 6.67066 13.4626
763 10 5.05414 0.150922 15.3212
1978 4 2.62459 4.96643 15.286
2372 4 4.28636 6.5298 16.6461
2921 4 4.54286 1.56229 15.3714
738 10 1.92088 4.9963 13.8681
2483 4 7.912 2.45762 15.8406
566 6 6.00831 3.48718 14.8269
2025 4 1.92496 7.43038 16.079
2270 4 2.23292 3.72311 13.2214
948 10 7.91163 6.73043 16.1846
104 6 2.57061 2.03903 14.5971
685 10 2.66116 6.18957 16.5187
2419 4 0.57706 1.78215 15.4814
866 10 0.123444 0.667038 16.4212
2436 4 2.3621 6.18957 13.0582
411 6 1.92159 8.42508 13.7117
2649 4 6.4538 -0.0567198 14.888
474 6 0.0511779 0.503325 12.8425
2312 4 4.96277 4.0619 16.9981
337 6 6.1956 3.68406 19.6381
1494 4 -0.129531 5.34138 21.2669
806 10 5.3025 5.49938 17.3084
2726 4 5.53481 5.73839 18.7487
1857 4 2.23069 5.57653 17.8221
2713 4 3.05895 5.0981 21.036
712 10 1.04546 1.69506 19.0651
2307 4 1.96467 2.7629 18.6182
2930 4 8.10481 3.3567 18.2686
503 6 4.1023 2.09038 17.7473
557 6 7.27003 7.81743 19.6675
62 6 1.41904 4.67938 19.4667
2166 4 1.59777 0.406169 19.535
2774 4 3.22387 8.39274 21.3809
1504 4 5.5527 1.6653 19.4009
828 10 5.46982 0.431459 20.3281
502 6 3.5416 6.71897 19.5244
2221 4 -0.0921154 1.3524 17.8829
2311 4 1.41673 8.13211 19.5762
2353 4 0.0477833 2.28766 20.1663
2539 4 6.78222 -0.147682 20.7084
102 6 0.11936 8.41523 17.738
2632 4 8.39348 6.80293 17.7235
1503 4 7.74606 3.95165 21.2242
1523 4 4.46084 0.589729 21.3831
1246 4 3.29006 3.04801 22.6644
2656 4 1.9803 3.29469 24.7787
1055 10 3.7587 4.46459 22.2051
1463 4 6.77806 2.65962 23.2227
2036 4 7.13931 8.00361 22.0221
893 10 6.85407 3.97351 22.4768
2216 4 1.88411 1.12393 23.4073
2424 4 3.86818 5.39963 23.4928
464 6 6.20124 3.36335 25.458
1173 10 1.95134 2.62195 23.4214
1490 4 0.851424 3.39014 22.4911
1647 4 4.73662 7.34473 24.8037
572 6 6.93469 6.60384 25.2051
721 10 3.96476 6.03952 24.9748
2712 4 2.34862 6.20537 25.2463
1400 4 7.14157 5.15844 23.4102
1759 4 5.2351 4.1853 21.8349
597 6 4.92842 0.456451 23.6132
570 6 8.19257 0.920416 22.5522
2230 4 0.89741 8.0363 25.6
1684 4 2.79684 7.63171 27.2275
1585 4 7.04397 4.7349 27.0255
2156 4 0.811974 6.00291 27.2743
647 10 2.88774 1.9321 28.7719
638 10 1.64024 6.91308 26.4089
132 6 0.822787 5.02096 29.3753
1316 4 3.21872 5.98118 29.3508
2040 4 3.13013 1.33227 27.2732
29 6 5.17083 5.22799 28.074
2455 4 7.16885 0.0509874 28.7929
1990 4 1.75382 2.92749 28.6358
2530 4 4.98706 7.66375 28.5337
618 10 3.50643 7.42257 28.7883
2114 4 8.40256 6.96171 29.7692
347 6 0.936176 3.47401 26.7713
2449 4 4.31642 2.61845 29.0798
1186 10 4.25415 0.401556 26.5589
1573 4 2.56253 0.780304 29.6537
1725 4 -0.121426 0.886154 26.1566
2030 4 5.2998 1.26767 25.9531
2139 4 4.62817 5.02415 25.8718
1807 4 8.35605 1.93911 30.0139
525 6 0.241214 1.5481 29.9505
851 10 7.40134 0.818402 30.2464
992 10 0.872216 3.1977 33.4578
1075 10 -0.215156 5.70186 32.5641
1454 4 7.51354 2.52832 33.1004
2697 4 5.3499 4.85565 33.9657
309 6 8.1998 4.46864 30.4969
441 6 2.75058 1.15304 31.9042
847 10 5.25828 8.04858 32.8472
2684 4 6.47529 6.91951 32.9972
666 10 6.60253 5.6936 34.0495
2791 4 7.95041 5.02425 33.2175
2289 4 1.02559 2.39967 32.2339
1254 4 5.91243 1.40247 30.6246
1344 4 4.14374 2.94034 31.6325
112 6 2.04726 7.7905 31.5357
2823 4 4.03243 7.31784 32.3856
2385 4 1.01203 5.59467 31.6733
123 6 5.33602 2.51611 33.8332
133 6 7.84736 0.389101 33.935
2177 4 2.02995 3.90121 34.0139
396 6 3.41655 5.12163 32.0413
2008 4 -0.181915 6.71354 33.6368
1153 10 5.11664 2.84869 30.475
2443 4 5.96691 4.07283 30.2169
2288 4 5.05606 8.37269 34.4868
2090 4 5.54788 14.9736 0.771146
1485 4 5.47472 10.5419 4.04202
996 10 4.04931 9.4807 0.401697
387 6 1.41427 14.2028 1.63818
641 10 1.36294 10.5118 0.204815
423 6 5.57613 12.4187 1.45228
2350 4 3.18125 14.3137 -0.0882978
2098 4 0.207666 9.55935 0.147193
2235 4 1.52385 11.3117 1.44508
1660 4 4.1393 9.04508 1.91629
2472 4 2.56303 9.36361 -0.0283026
1936 4 5.45379 12.9917 3.65942
1682 4 4.22142 16.726 3.295
397 6 6.19461 15.2065 3.35514
2538 4 4.64877 10.8043 0.303134
1164 10 4.31303 15.3564 0.0739221
1787 4 3.52184 16.5673 0.775384
348 6 2.14409 11.0148 3.62747
2078 4 8.3931 10.6444 1.08166
627 10 8.18239 11.427 -0.158695
2903 4 1.64679 13.728 3.89232
655 10 5.5201 9.10303 4.78127
2920 4 3.69925 16.4104 7.34949
2262 4 3.76789 11.8986 5.27802
1728 4 6.26304 12.0276 5.90805
2780 4 6.78295 16.4739 5.2769
2893 4 5.62883 9.13322 6.2866
1000 10 6.11498 12.5796 7.42676
2647 4 4.78763 12.2022 8.02124
20 6 2.55423 12.2516 7.09444
875 10 5.16382 11.9934 4.74444
2063 4 0.574001 11.826 5.26617
2100 4 7.33211 11.7212 8.06687
2325 4 1.73529 10.2494 8.42482
1314 4 0.637984 9.19909 4.3112
241 6 6.0409 16.0598 7.2934
1122 10 0.660218 13.288 4.95614
1726 4 0.625442 16.5658 6.57051
484 6 3.89937 9.38269 7.7698
207 6 0.456297 8.48128 7.81375
1694 4 6.5237 13.9817 7.39318
743 10 0.51301 15.2998 7.41438
2708 4 1.01463 14.0841 6.366
98 6 7.70085 9.09699 7.18152
1405 4 4.44658 9.22993 9.97097
774 10 3.49785 9.65516 11.0843
2097 4 3.99858 15.2306 9.65219
2282 4 2.55343 8.54096 11.4803
2573 4 4.19133 10.3832 12.3508
336 6 4.60959 13.0816 10.0749
777 10 1.46959 11.1859 9.58392
1778 4 1.52909 12.6376 9.22441
518 6 7.53995 11.8952 12.6797
2393 4 7.9293 9.99781 9.59144
1899 4 0.219383 10.8147 10.3761
2999 4 6.72796 11.9282 10.5821
2514 4 2.74832 10.9909 10.6215
2961 4 8.19522 14.543 12.5282
1199 10 7.78975 11.5976 9.63318
2345 4 6.12121 16.16 12.3568
369 6 4.33843 17.0286 11.1716
2428 4 7.54456 16.8055 8.67662
1080 10 3.14991 16.1412 8.72212
2056 4 1.70087 15.2438 8.46644
372 6 0.35744 11.9756 12.7217
1918 4 2.4074 13.8061 13.717
456 6 4.30606 12.5308 14.1863
1901 4 1.21178 15.1461 15.67
272 6 4.79142 15.4729 16.426
1849 4 6.06614 10.5816 13.9699
849 10 5.19052 9.50522 13.4134
1777 4 4.37387 13.3009 16.4588
1603 4 6.8951 15.2861 14.5159
135 6 3.07301 9.34378 16.5356
1171 10 1.7925 15.0719 14.286
2998 4 0.716857 15.7172 13.207
1056 10 0.166055 10.5101 15.6862
2269 4 2.79898 16.3451 13.9626
808 10 7.89188 15.0232 15.7765
1386 4 0.942766 10.3487 14.3765
1343 4 8.23581 13.3916 15.4329
1994 4 4.19219 8.95016 14.4049
198 6 6.57406 9.98668 16.3422
2249 4 5.92662 13.598 12.8805
2843 4 1.08602 10.6145 16.9316
1139 10 6.65448 14.9423 12.9706
1473 4 7.13895 15.2341 17.0675
2047 4 1.82525 10.472 20.6739
1158 10 5.78163 14.0797 20.1642
532 6 7.8163 11.4653 19.617
1026 10 2.37479 9.08885 20.3345
1566 4 4.98148 10.6841 20.3188
2464 4 7.25835 13.7506 20.3826
2800 4 5.4499 15.6347 19.7257
953 10 4.77702 10.0683 19.0022
2059 4 4.71302 11.208 17.8244
1836 4 5.34034 13.3723 18.8402
1447 4 2.84809 12.9396 18.5505
2367 4 0.375683 13.94 19.9077
183 6 1.27428 14.834 17.8634
2171 4 5.89032 9.20158 18.4079
1015 10 4.16903 12.7881 17.8353
228 6 0.937513 11.6676 18.9045
1673 4 3.3565 9.32021 18.8576
2374 4 3.21834 16.5039 17.7915
2620 4 4.8836 13.7143 21.3447
2975 4 7.65465 11.6183 17.3497
838 10 0.540595 13.9601 21.3756
1058 10 1.41941 16.8747 21.3047
2182 4 2.46008 16.8898 20.1332
855 10 3.03074 14.1605 25.5797
88 6 6.96129 12.562 22.6347
2733 4 2.94843 14.878 24.2889
1764 4 6.58601 10.3423 22.7627
172 6 0.597772 10.49 23.0953
1378 4 1.3939 15.3493 21.8674
1396 4 1.1818 12.8401 22.1064
2439 4 4.84039 11.7998 24.7272
403 6 1.41079 16.6721 24.5223
2356 4 2.84919 10.7551 23.66
1890 4 0.00979463 10.4805 25.4595
901 10 3.32011 11.2312 24.9951
2364 4 6.77443 13.3312 24.9635
995 10 7.66215 9.41436 22.2678
477 6 3.83654 15.6104 22.5821
2469 4 2.61338 12.5956 25.484
515 6 3.28045 12.0507 21.4798
197 6 7.12122 15.7677 25.2823
1163 10 5.59017 12.8298 25.7285
409 6 4.73082 9.13484 22.9282
239 6 5.92077 16.027 28.7699
439 6 1.81262 16.6251 27.5765
8 6 -0.194198 13.7199 26.5922
2932 4 4.55167 14.0002 26.1361
993 10 -0.0495149 9.26949 26.3466
720 10 5.46648 12.3234 28.7426
2232 4 6.48238 11.438 29.4061
2456 4 3.9757 11.9459 29.0643
2205 4 0.402246 9.40502 27.8021
1413 4 7.19427 8.60082 25.9323
362 6 2.24641 13.6931 29.4942
2509 4 5.92526 12.0591 27.1017
2889 4 5.66764 13.8027 28.9441
593 6 2.29559 10.5288 28.4476
1667 4 0.546399 12.3878 28.7214
1350 4 2.31837 14.67 26.7671
1827 4 3.3345 10.2843 26.1209
2742 4 8.03081 14.788 27.2894
2331 4 5.49191 16.9443 26.4582
2198 4 0.211106 15.3116 28.4582
2058 4 8.09392 16.1883 29.3504
1427 4 2.83235 8.50528 29.6023
480 6 5.00434 8.83083 26.4849
2404 4 3.25732 17.0002 28.9905
469 6 8.34443 12.7536 26.543
1912 4 1.54934 12.3086 31.4071
2675 4 3.32464 10.5312 32.039
1224 4 5.84754 16.0628 31.2914
15 6 7.34963 13.7171 30.5277
778 10 1.85571 10.968 31.9915
349 6 5.17842 11.5779 32.7273
446 6 7.36057 14.4128 34.1049
1287 4 4.48338 16.0459 33.4117
2892 4 0.88684 9.81362 31.5341
2902 4 0.437448 15.6588 33.3484
2064 4 1.50239 11.5106 33.7119
1282 4 5.60221 13.8584 32.3609
1366 4 5.79722 9.16809 32.0912
2518 4 3.49549 14.8059 31.3979
629 10 4.85689 15.129 31.9574
353 6 1.8975 13.909 32.8369
1731 4 8.21013 16.3662 33.5395
1905 4 6.85166 12.1205 34.297
1679 4 -0.222102 15.9975 30.8818
412 6 4.91472 9.85382 30.2923
2389 4 7.73296 24.7367 1.16353
127 6 6.80905 24.4648 3.22463
2316 4 0.444774 19.6036 2.77906
768 10 3.51071 24.6181 3.59926
1993 4 2.25741 21.4902 2.54061
11 6 6.86884 19.2582 1.84439
1161 10 1.36986 18.4267 3.36016
1600 4 7.92438 17.5722 3.18038
1972 4 7.03038 21.6901 2.42906
2172 4 4.63615 23.8175 2.94585
2615 4 2.6575 25.4239 2.63722
1783 4 2.45147 18.2863 2.18427
9 6 3.87847 23.7275 0.81567
1575 4 4.01982 21.3827 0.314791
1051 10 0.8276 21.1371 2.55009
59 6 4.4489 21.2845 2.59579
2427 4 4.89219 18.6168 1.66414
962 10 3.90086 17.5595 2.08545
2136 4 8.01798 18.5654 -0.0185867
1188 10 7.10887 25.2791 -0.106522
1697 4 0.0025947 21.5297 1.37652
99 6 1.82511 21.2109 -0.246736
2956 4 0.529899 17.1724 3.42285
1255 4 0.2131 21.7436 3.95198
492 6 1.93833 24.7368 6.68071
1190 10 2.16688 21.6098 8.37953
270 6 5.16126 22.9054 5.87229
701 10 5.76233 19.8979 5.63012
432 6 7.6606 22.376 7.57689
1719 4 2.81614 23.8259 4.7002
2106 4 1.62454 20.194 8.24063
1533 4 6.84638 20.6158 6.43894
1678 4 5.49635 22.6858 7.97693
1028 10 7.55398 17.6702 4.83608
552 6 2.54569 21.631 4.91979
2828 4 4.87399 18.93 6.33256
12 6 0.765534 18.8405 6.67958
2304 4 4.91255 20.8776 4.82163
2037 4 6.65603 18.9304 4.48957
1229 4 6.36427 24.8966 5.54956
1214 4 1.9981 18.8798 4.66759
2001 4 4.37466 25.3782 6.98857
2015 4 2.41916 22.2689 7.07952
66 6 3.5192 17.4066 5.33631
926 10 5.19001 25.7633 5.75959
329 6 3.70665 19.165 8.40959
2126 4 5.48857 18.7391 9.95303
2948 4 1.16375 21.4434 12.4679
2919 4 6.57139 25.598 10.6188
2341 4 6.84037 19.854 11.9045
2694 4 2.72074 17.4414 9.41145
1692 4 4.49105 23.4238 10.2879
507 6 0.930523 18.0131 10.5959
2075 4 7.81371 19.8127 9.661
1342 4 3.02467 18.387 12.4414
637 10 4.89736 22.3349 9.31462
1062 10 6.44036 19.7616 10.3247
2629 4 5.91668 21.2511 10.0682
1867 4 8.07241 23.7885 9.48054
31 6 2.46931 23.0029 11.3147
1398 4 1.41955 22.4445 9.41535
258 6 6.51287 23.4866 11.5081
2034 4 3.67117 21.2972 9.13924
745 10 8.15871 25.3026 9.64972
747 10 -0.218717 20.9084 12.3409
2130 4 2.25198 25.4679 11.559
2662 4 8.41224 22.5455 12.4522
1273 4 -0.227202 23.8987 10.8673
1243 4 5.40348 24.008 14.0247
2552 4 3.55936 18.4727 14.9539
1531 4 5.06394 20.1072 16.139
1769 4 7.04412 21.0762 14.0136
899 10 0.262415 19.3758 14.9564
1960 4 5.67659 17.6385 16.1422
2258 4 2.8011 23.4712 13.8499
816 10 5.96583 20.2872 13.1347
2789 4 1.21048 18.1637 14.3663
2343 4 1.20604 20.4045 15.5403
837 10 2.68671 17.8849 13.7666
2799 4 5.83986 18.9531 13.9535
1193 10 3.97135 24.3016 14.2764
358 6 7.002 21.2385 16.7907
1182 10 5.10707 18.8132 15.3819
176 6 2.77172 21.2877 14.1611
2379 4 3.81243 24.6986 15.8685
1614 4 1.76089 25.0014 17.0444
1426 4 4.70703 20.9288 12.8875
2735 4 8.39662 19.2174 16.5538
1743 4 2.44449 18.8882 18.4891
27 6 5.72917 24.2539 19.7222
911 10 3.10821 17.6151 18.7645
897 10 7.09945 21.6444 19.9769
2454 4 6.21794 20.4794 20.7811
1279 4 3.74598 21.2167 20.8691
2165 4 7.68918 25.2604 18.6908
2624 4 4.61188 17.9965 19.4471
880 10 0.073161 24.3527 20.1144
192 6 3.97214 20.907 18.3949
2303 4 6.22116 21.9552 18.7986
2468 4 0.262183 25.3385 21.2159
1542 4 7.20205 17.4882 19.6899
2623 4 7.36856 22.7995 20.9613
2582 4 1.17658 23.396 19.8067
588 6 0.748737 21.6712 17.3944
1736 4 3.91714 24.6768 18.38
2654 4 -0.0460607 25.2688 18.8047
521 6 7.58001 17.3369 17.4627
2405 4 8.39623 20.9849 19.5619
1144 10 3.0889 24.1489 17.2439
1889 4 -0.00273749 17.1422 20.6809
2565 4 2.80063 22.6511 17.2495
991 10 0.0617885 24.8193 17.22
1073 10 5.80505 17.1246 20.0721
633 10 4.71413 17.9325 25.6164
2055 4 3.18554 25.352 24.2819
2458 4 5.23732 24.0602 23.8751
2183 4 5.53018 21.7956 22.7039
430 6 7.7827 20.7195 24.0653
2590 4 1.13215 21.2812 23.5664
1434 4 6.08825 22.0923 25.182
642 10 5.07391 22.4594 24.18
2149 4 3.62733 24.6576 21.8111
1631 4 7.0314 18.6367 23.0901
882 10 4.23155 25.0297 23.0995
802 10 5.65397 18.2789 22.8211
2088 4 4.89937 17.4253 23.9055
1668 4 3.63146 22.1376 24.2513
1637 4 0.510386 24.6884 24.7461
1520 4 4.66593 19.4102 22.3272
24 6 2.76127 19.9241 24.5235
505 6 1.77311 22.8309 25.3833
1959 4 1.7359 17.7897 22.4009
1371 4 5.29473 19.3052 25.5139
724 10 4.91537 20.7745 21.651
2894 4 3.19747 17.7619 25.6524
105 6 2.25421 22.5262 21.6344
1495 4 5.54981 17.148 21.6186
2652 4 0.963998 19.0479 27.8216
1421 4 6.89045 19.5302 28.6802
2707 4 2.58422 20.7697 26.7173
110 6 2.49229 23.8493 28.7838
455 6 5.30051 24.8462 27.9299
2461 4 5.13706 22.5355 28.2845
205 6 5.78304 20.8106 27.0699
978 10 3.54324 18.2706 29.77
1666 4 1.4831 21.3469 28.9658
2293 4 3.22 24.3943 26.6111
717 10 5.33913 22.4106 29.7737
776 10 2.02194 20.3002 28.0022
1923 4 3.19418 19.4869 28.7646
2211 4 0.0329811 24.4009 29.4926
2176 4 7.2584 25.2055 26.94
658 10 6.29581 19.5339 29.9885
1681 4 0.0285223 17.7203 25.9576
1904 4 5.1766 18.3551 29.8611
807 10 3.2359 25.6702 25.816
2487 4 3.97258 22.8863 30.5201
1085 10 4.99643 20.9487 33.9633
1545 4 2.16799 21.6655 31.9609
546 6 3.04272 17.8812 33.3587
2798 4 4.60401 22.1999 32.7699
1693 4 8.01137 24.8147 33.3514
460 6 1.2346 20.0897 31.2292
1307 4 7.07179 19.2203 31.2031
153 6 6.86506 22.6933 32.6199
1565 4 2.94204 18.4284 31.1306
651 10 3.37984 22.5339 31.9489
264 6 6.1001 17.7481 33.0415
1481 4 1.03412 19.238 33.7261
850 10 1.86256 24.6298 33.3047
2284 4 6.48557 21.1425 34.2545
2580 4 0.729466 24.9136 32.205
1752 4 3.03609 24.0329 32.3242
2558 4 4.65164 19.6336 33.3912
2473 4 6.56457 23.068 30.4018
2968 4 5.75371 24.9102 34.2471
1202 4 5.32849 20.8549 30.2081
1289 4 1.51674 23.5933 34.2998
2351 4 6.59384 28.374 1.59421
2486 4 6.64925 32.0362 2.75565
2878 4 3.66312 28.6787 1.43027
577 6 2.28421 31.8551 1.33956
1652 4 0.330564 28.0167 1.7507
224 6 3.72812 33.9243 3.28323
555 6 5.16762 30.4185 2.4717
1029 10 7.54184 28.0955 2.90557
177 6 2.91045 27.654 3.5147
1887 4 1.24285 29.6285 3.44332
879 10 6.81493 28.332 0.00202674
2124 4 3.26951 31.3559 3.13497
52 6 1.25917 25.9752 1.26289
799 10 0.202269 29.4442 2.20183
2913 4 1.50055 33.8307 2.96638
1945 4 4.2077 33.4084 1.06541
2093 4 7.66367 26.6191 2.95942
1524 4 0.632443 30.3729 1.09087
623 10 0.00711932 34.0603 2.64324
710 10 4.00453 29.0406 0.039716
156 6 8.39197 32.417 1.2678
2829 4 7.8738 34.0211 3.94964
2784 4 6.34097 28.6832 3.97559
1864 4 4.54871 30.6144 -0.00106696
1033 10 4.68768 33.9445 -0.2325
2039 4 5.46015 27.3415 5.93053
2996 4 7.61601 31.9467 5.13515
2009 4 1.8711 31.523 5.19706
2091 4 1.56405 32.5467 7.45809
1633 4 2.61537 34.0101 5.72756
2255 4 5.95809 29.6475 6.25337
1067 10 1.66066 32.9067 5.93084
1191 10 6.52507 28.4538 5.56132
1266 4 7.9497 27.9603 5.74986
2727 4 5.48771 33.3511 4.64284
1050 10 1.14145 27.4595 7.26655
573 6 3.90437 29.3009 7.08938
1250 4 1.54189 26.3958 8.37902
2967 4 3.2083 29.46 4.89587
251 6 4.80475 34.1101 6.71941
2245 4 1.46328 26.9424 5.82505
96 6 6.45391 31.6475 7.41693
1297 4 4.32951 25.8591 4.43962
2070 4 0.132857 33.1914 5.47441
1436 4 1.59629 28.7992 7.71779
2698 4 4.05084 31.5826 7.61211
639 10 6.77137 32.7305 4.13212
2234 4 7.18063 33.7395 7.959
945 10 3.04704 32.3856 8.4172
2103 4 7.99211 26.1524 8.41115
283 6 7.73318 28.758 8.32623
868 10 2.51442 30.519 4.15314
1659 4 -0.230876 30.4281 10.4292
2702 4 6.1727 30.1782 9.4632
1060 10 8.02077 32.1731 12.0268
180 6 8.38312 28.7509 11.387
1953 4 7.07014 33.1117 11.3041
746 10 5.2303 29.2598 10.1833
2762 4 2.40171 31.8259 9.62646
1612 4 4.25113 28.536 9.30973
580 6 0.931108 31.9222 11.717
678 10 3.1723 26.4035 12.3469
1734 4 4.49668 26.6717 11.4616
1234 4 0.548558 28.3229 11.5291
1086 10 6.1116 26.7386 11.5423
1590 4 4.61113 29.9002 11.4073
1774 4 6.35292 28.0559 10.599
275 6 2.07874 29.4861 9.90921
527 6 4.8193 32.2097 11.0009
470 6 0.289418 25.9288 10.1965
1440 4 3.55854 33.8422 8.68161
2421 4 4.41567 34.4241 11.9764
179 6 3.61821 26.3872 9.00348
1559 4 0.191496 34.0113 10.8694
1982 4 4.0795 33.9238 14.5017
282 6 3.71675 30.328 13.6576
2330 4 0.413736 27.9096 14.0762
1102 10 3.35553 33.9901 13.0154
468 6 1.29815 32.1884 14.6843
1124 10 2.94208 31.269 17.0711
498 6 7.67976 33.4083 16.724
2765 4 3.44407 31.5193 15.6685
158 6 0.971171 27.8103 16.3133
2268 4 5.98211 29.8879 14.6552
994 10 7.30638 30.4837 14.4209
134 6 5.46936 27.4211 14.9398
2533 4 0.787881 34.0722 16.4318
1829 4 7.95052 31.2131 15.6301
2120 4 7.29553 26.7217 15.9492
2020 4 3.02255 28.5814 15.9276
2679 4 8.23647 29.4135 13.706
1786 4 1.41308 30.0488 13.1613
1271 4 7.17255 31.5716 13.222
848 10 1.21008 28.6134 13.0382
2569 4 2.93944 32.522 12.8446
2527 4 4.84371 34.3623 16.8326
68 6 6.27206 30.2151 17.0559
1285 4 6.62872 26.8002 12.8953
1331 4 2.64969 27.8767 12.8391
2123 4 3.72283 25.8045 13.6447
2500 4 7.99758 30.2262 20.4595
2366 4 5.55921 26.7595 20.5017
931 10 4.89053 33.23 18.0796
165 6 0.935881 33.0264 18.779
2638 4 2.8047 28.0367 18.4852
542 6 6.94371 27.362 18.5445
1579 4 3.78539 30.1109 17.801
1740 4 4.69036 33.9898 19.3652
1773 4 6.02629 32.3223 18.015
1465 4 3.48642 32.5196 18.0627
1888 4 1.70013 32.2196 20.8628
531 6 7.99244 32.5608 20.4942
326 6 2.9736 26.0455 19.9641
2810 4 5.12269 27.9221 17.2584
749 10 3.72832 28.4791 17.3226
1616 4 8.1017 29.1752 18.1288
400 6 2.25193 29.9332 19.7429
1445 4 0.164664 29.1457 20.0269
2253 4 1.4927 31.2584 17.395
2396 4 1.0424 31.0066 23.0194
765 10 2.16385 31.7788 22.218
791 10 0.376829 26.0815 25.2784
1999 4 7.14349 27.6322 22.4261
1828 4 3.14154 30.501 21.9174
2661 4 7.27079 28.5171 25.6985
457 6 1.80491 28.9189 25.2837
2157 4 5.1533 26.2871 22.9413
679 10 5.7852 27.4093 21.8347
2052 4 4.93492 28.7949 21.9836
80 6 2.52185 34.4249 21.5191
2882 4 7.86957 31.8943 25.3092
2870 4 7.26418 31.6225 22.8144
1192 10 3.47506 29.1034 22.6198
1264 4 2.83965 32.7454 23.1664
1861 4 3.52309 29.3536 24.0885
1 6 0.516467 27.5787 21.6206
69 6 6.8145 26.3398 24.7959
2286 4 6.70385 33.8329 23.9394
786 10 7.57751 32.7006 23.7816
234 6 1.27913 34.3677 25.1651
1497 4 2.51315 27.9946 22.19
2143 4 0.479671 31.6293 25.3106
600 6 3.57582 31.5622 25.0514
1397 4 0.00688059 27.1342 24.1837
1027 10 -0.189445 31.6614 23.8091
2265 4 -0.241374 33.154 23.4751
1645 4 3.57716 34.2455 25.6029
1551 4 5.47102 31.2248 26.1471
2821 4 5.82417 32.6768 29.4652
2574 4 7.58354 30.78 27.4205
939 10 2.09556 30.4316 28.2189
2531 4 2.91061 30.0919 27.0127
461 6 1.38072 33.233 29.5453
598 6 1.62111 27.0619 28.3496
862 10 4.35209 27.1727 29.7936
2217 4 4.74245 34.3643 27.9394
1514 4 6.79743 33.1372 27.1081
1207 4 0.778828 31.3449 27.7311
594 6 5.10408 30.4996 29.6481
2940 4 4.9216 28.33 28.9386
2749 4 2.82368 31.307 29.2795
1177 10 6.81104 31.7183 26.4449
1233 4 1.38959 29.2215 28.9005
687 10 6.09215 33.7014 28.4591
350 6 4.86137 28.7421 26.5454
2471 4 3.65048 26.1199 28.8892
2850 4 1.84982 26.5155 25.8868
359 6 7.43404 27.323 29.7294
2409 4 4.32305 26.6308 26.068
2544 4 7.65928 29.9161 29.8312
2767 4 5.22562 30.6097 32.2109
2678 4 3.00406 31.6815 32.9472
540 6 2.4919 29.8151 31.3064
13 6 7.43534 32.1376 31.3246
2292 4 1.61571 33.665 31.8649
2360 4 5.28139 32.7538 33.5745
2377 4 5.56765 26.3798 30.4304
1452 4 0.438376 30.4715 32.1059
2938 4 1.21743 32.9587 34.2484
2690 4 3.40781 27.7294 30.9279
2108 4 3.35179 34.2423 33.6495
974 10 4.58123 31.3875 33.2857
1206 4 2.91021 28.9445 33.734
662 10 2.20038 33.1511 33.1429
568 6 0.770198 28.948 34.0475
2337 4 -0.0594774 27.3505 32.3486
78 6 4.49334 26.2344 32.5576
1211 4 5.34231 28.2026 34.2097
1448 4 7.30498 26.9342 34.4368
2787 4 7.71406 29.3475 34.2501
1584 4 2.4734 25.8963 33.9338
2776 4 7.67439 34.4084 31.1519
325 6 -0.219483 34.4345 33.1305
2231 4 8.39795 32.7402 33.864
331 6 -0.22577 28.9453 30.1989
673 10 12.4506 0.440645 1.56391
2006 4 16.3825 0.972717 2.54824
1168 10 11.4583 4.99726 3.66626
493 6 13.1465 7.82575 2.65703
1939 4 13.9839 0.489085 1.64886
2117 4 12.8436 5.60731 3.73265
1496 4 15.5807 4.30485 1.58616
2003 4 14.9181 6.81416 1.27281
182 6 9.18594 5.5111 1.39978
5 6 9.89277 2.30877 1.90241
2814 4 11.694 1.15371 2.62838
1166 10 15.1506 0.211681 2.91708
166 6 16.6796 8.16161 2.1846
800 10 15.0898 5.42366 0.756722
2129 4 10.8791 4.57616 2.38651
1611 4 12.0867 0.76387 0.0894711
232 6 15.5635 2.21889 0.629248
2505 4 9.26034 3.40959 0.0652842
2394 4 13.5541 4.94227 0.180149
1103 10 10.9666 7.90696 -0.0972129
1884 4 9.551 7.49576 -0.0570488
45 6 14.9419 5.10836 3.80756
1989 4 8.47484 0.31512 1.73858
1984 4 9.01193 8.10959 2.93494
2587 4 8.52955 1.74014 3.85657
121 6 12.3891 6.77765 6.15496
2474 4 16.7675 6.40377 6.31254
1251 4 8.80733 4.88781 6.13834
2299 4 10.5011 6.03232 4.56442
809 10 16.1822 4.97211 6.74067
408 6 12.5687 -0.0739244 5.40931
622 10 11.8312 3.25914 6.0581
1642 4 15.4441 7.34529 4.20608
732 10 8.97653 5.71677 4.92928
592 6 15.165 1.52964 6.38343
1844 4 12.0284 4.54657 6.85067
2111 4 15.3152 4.26515 5.77058
635 10 10.1265 1.13133 7.22153
1134 10 15.7492 7.69351 5.66533
2215 4 12.8826 2.17035 6.14594
2314 4 8.48725 1.24502 7.3336
2466 4 15.5906 5.3688 8.09803
1876 4 10.3677 2.54675 6.4571
1304 4 11.5572 3.53508 4.48264
1570 4 14.5636 7.57834 6.65828
1897 4 10.4192 -0.0862576 6.35643
1687 4 14.4643 0.411823 4.26561
2609 4 15.569 2.74644 8.32429
2450 4 10.5459 6.94376 8.33376
1526 4 13.8502 -0.126705 7.69082
406 6 15.6094 7.79718 8.94124
941 10 15.3303 4.0129 9.13449
2555 4 8.97596 3.28753 12.5264
2604 4 13.6459 2.67852 12.1757
72 6 9.66769 1.38499 10.5705
227 6 13.8529 4.92435 11.7617
2646 4 10.8235 1.10921 8.55209
1136 10 13.6785 1.18046 12.0123
1522 4 11.8686 5.92939 11.2997
2706 4 9.38704 5.68462 11.9878
2441 4 13.1785 0.485119 10.7853
1147 10 15.7006 7.62718 12.592
2806 4 16.3977 4.30897 10.225
867 10 8.91227 4.27234 11.402
1376 4 9.5898 3.95796 10.1041
936 10 11.009 5.93351 12.5502
2731 4 13.8257 4.11813 9.60656
393 6 11.7923 5.14328 9.34098
2079 4 15.4354 7.01136 11.2963
1499 4 15.2609 0.631797 12.0813
328 6 13.1834 1.78268 8.68713
1384 4 10.0718 0.641124 12.7443
481 6 8.56464 5.57446 8.70664
792 10 14.6569 7.93957 15.188
114 6 14.178 4.81209 16.9948
1995 4 14.459 7.88762 13.5113
322 6 9.34456 3.88752 14.6383
2915 4 12.1099 4.50918 16.4532
2381 4 11.3674 4.75583 13.4501
801 10 16.0215 5.48758 14.4746
1257 4 10.1449 2.95892 16.7033
2219 4 13.0408 0.598296 13.4139
2904 4 15.7707 1.62032 14.3656
1946 4 14.3962 2.35335 16.2531
1921 4 15.0146 6.28336 15.4352
1230 4 15.2413 4.52824 13.6123
189 6 12.9737 3.19583 14.5029
2891 4 16.7893 2.12394 16.4507
737 10 15.4912 1.40737 15.9142
355 6 11.4135 6.49566 15.4436
1704 4 13.2925 8.10771 15.7543
2309 4 15.2877 0.0181105 16.3557
1129 10 16.5233 1.0296 13.0499
1721 4 16.6667 6.68725 13.4942
1216 4 8.86582 5.83025 15.5156
1641 4 10.9261 7.25067 13.318
517 6 8.57109 0.613852 14.5833
1793 4 15.3858 7.36386 19.0188
1133 10 11.2304 3.93716 17.5525
2416 4 13.9313 1.44437 20.2704
2081 4 9.75821 6.88868 19.8056
2909 4 10.878 7.36356 17.4698
466 6 9.60924 3.1935 20.2432
196 6 13.12 1.23905 18.107
2987 4 8.87333 0.937434 17.6213
1174 10 9.82069 0.174746 18.6717
2769 4 11.9163 3.1472 18.617
2658 4 13.1864 7.71189 20.3694
671 10 15.3806 1.08897 20.1226
2982 4 10.212 1.06758 19.8361
624 10 14.2471 6.54412 19.9983
1576 4 10.1473 4.98663 18.1774
2496 4 13.5483 5.63489 19.0527
147 6 13.2909 3.78902 20.4305
1200 10 9.94524 6.58637 18.3436
2834 4 15.9755 1.89487 18.8602
744 10 8.60073 2.50413 17.1926
2415 4 14.8919 5.99607 21.2076
1404 4 11.0548 -0.0164325 17.5994
378 6 11.7972 0.282069 21.3964
1315 4 16.296 0.996849 21.289
2365 4 10.4547 2.21021 22.1461
214 6 12.6256 6.33658 22.8252
2728 4 15.1629 3.18519 23.7283
631 10 11.1405 3.36029 22.7966
2848 4 10.4171 3.7531 24.1739
472 6 9.15248 6.23493 22.1258
1808 4 10.5574 7.68543 23.3123
427 6 15.1872 4.69985 25.7533
1596 4 13.6219 6.44708 24.994
854 10 13.9635 2.29343 23.956
2699 4 11.2932 4.60673 21.9439
1770 4 13.956 0.829731 23.7066
864 10 14.3065 7.76547 24.955
1390 4 12.6463 2.9435 23.3057
2180 4 15.8367 7.5355 25.5133
2448 4 17.0042 5.37003 24.7678
984 10 9.85151 2.89041 25.4024
1958 4 13.6278 2.41882 25.6346
1664 4 9.66159 8.38247 25.4232
2532 4 9.1033 1.66768 25.0524
442 6 16.7256 2.81656 22.3528
616 10 17.1176 6.82577 24.8471
1319 4 15.059 0.971559 27.8012
1833 4 10.7876 7.36374 28.8563
967 10 16.4191 4.15003 28.9315
1796 4 11.0824 2.45695 26.3062
1715 4 12.8708 -0.164456 27.2639
2302 4 15.8391 8.02538 28.2556
1098 10 13.5201 0.861928 28.268
1564 4 9.29396 4.15222 26.159
698 10 15.2152 6.78719 29.1447
1817 4 12.9065 2.28289 27.9996
1006 10 16.5311 1.58911 27.6194
212 6 12.2946 6.71296 27.0476
1291 4 16.9376 1.11504 26.141
2809 4 12.4777 4.51769 26.7304
1013 10 12.5366 3.04005 26.6023
2484 4 13.3452 0.667773 29.7199
1937 4 15.7931 5.46538 28.2378
964 10 9.33121 7.23139 28.6214
2022 4 9.05405 6.26785 27.2648
1509 4 13.7329 6.75316 28.9571
2926 4 16.2971 3.17419 27.582
1317 4 9.03017 4.11631 28.6436
143 6 9.07362 -0.117703 26.5196
2390 4 15.4609 3.64052 29.9469
1253 4 10.6907 -0.108338 28.6599
620 10 8.51223 4.77467 27.4243
963 10 16.3526 1.56454 32.4793
2687 4 11.8512 0.928695 32.3115
465 6 13.6428 2.26372 31.1645
1195 10 11.035 4.52264 31.8932
2492 4 16.6484 0.539192 33.7493
590 6 15.4474 4.62542 32.0184
1457 4 13.572 6.03778 32.5295
2992 4 11.7185 4.4849 33.4318
1087 10 11.9434 -0.130491 33.3345
2110 4 15.6866 0.71084 31.4067
1066 10 12.7874 5.59975 33.6701
1763 4 11.791 3.69166 30.9272
2502 4 9.66339 3.58887 32.2134
1893 4 15.8833 5.41753 34.1304
1866 4 10.6527 5.93514 31.5415
1226 4 15.3436 2.51854 33.1072
582 6 10.5905 1.60428 30.582
2228 4 15.8181 6.63414 30.49
375 6 12.2679 7.10442 30.4142
714 10 8.58547 3.50594 33.4498
514 6 8.75417 7.42823 31.9464
1530 4 11.9718 6.73852 34.3284
741 10 14.7315 11.0093 2.50058
2867 4 9.4096 13.3269 2.24366
294 6 13.1374 13.5716 1.29788
1351 4 13.6361 10.0213 3.1693
958 10 14.7873 15.9153 1.61174
2099 4 8.85413 16.4593 1.22557
2517 4 16.2649 15.9254 1.99164
2966 4 11.0606 14.3738 0.567499
912 10 9.26504 16.8173 2.74212
1900 4 16.1571 10.6801 2.82645
2041 4 9.08329 15.4643 3.53242
1676 4 13.9278 15.0431 2.52155
2873 4 14.4859 15.803 0.119814
2803 4 14.3397 12.4407 2.87492
2323 4 14.386 10.5907 0.982236
2285 4 9.27053 12.6402 -0.179271
940 10 10.3981 13.0439 0.966572
487 6 10.3977 9.99582 2.37507
2567 4 11.326 11.8947 1.19677
1107 10 9.78943 14.038 3.69731
490 6 12.5163 16.2312 3.77058
2105 4 11.2549 14.2314 3.79017
558 6 15.6912 14.0202 3.98085
1309 4 11.5115 8.63517 1.07152
364 6 15.3292 10.6302 6.9659
987 10 16.9342 13.0418 6.95901
1689 4 9.06468 13.3836 4.81929
1417 4 14.1032 14.6038 5.64378
2869 4 13.8086 13.0339 7.68063
968 10 14.3847 14.4381 7.10879
1567 4 11.3433 12.8841 7.06158
2488 4 10.0369 9.38964 7.5822
250 6 10.0185 11.3544 5.83158
2801 4 16.4394 12.6148 5.58671
541 6 12.7445 12.965 4.66332
2876 4 9.9143 15.8546 8.27411
1727 4 15.9472 14.3413 7.40143
1016 10 12.7167 10.1431 4.65872
1605 4 13.6098 10.789 5.73102
895 10 12.2555 12.8136 8.25323
454 6 9.16178 13.9925 7.09201
1438 4 16.5189 8.99197 5.70916
1587 4 13.8571 15.5435 7.96895
2602 4 16.7077 12.101 8.12152
1662 4 11.6082 11.1025 4.20516