ITEM: TIMESTEP
150000
ITEM: NUMBER OF ATOMS
3000
ITEM: BOX BOUNDS pp pp pp
-2.9461302481543328e-01 3.6572275992542195e+01
-2.9461302481543328e-01 3.6572275992542195e+01
-2.9461302481543328e-01 3.6572275992542195e+01
ITEM: ATOMS id type x y z
385 15 1.57093 6.10812 3.07763
1892 4 0.967055 2.54992 2.48579
380 15 0.777204 1.73767 4.03728
2803 4 6.99464 3.08194 1.31405
2387 4 3.07397 5.9545 2.15318
734 15 6.37495 1.45784 0.741328
1167 4 5.61788 5.51424 0.823888
2332 4 5.56454 5.02168 3.6187
1078 4 4.04609 3.18584 1.85239
2793 4 1.19992 7.86484 2.94285
2725 4 2.33099 1.56448 0.0538952
2682 4 8.58167 4.84635 -0.0872296
543 15 0.197421 3.73842 1.47685
495 15 4.52826 4.99216 2.20501
751 15 3.61873 2.71145 0.228442
955 15 5.9277 0.668103 3.68088
2814 4 1.09085 4.19723 -0.0761651
1928 4 5.51177 0.531247 1.98882
2371 4 0.241814 5.23655 2.42384
1856 4 7.29868 7.7365 2.04479
144 15 6.89204 4.49016 0.205633
2904 4 7.64527 0.206834 3.49994
2178 4 8.27257 7.02342 1.95675
2672 4 7.75174 0.800366 -0.0246005
2783 4 7.08492 8.32739 -0.0881932
1457 4 -0.21366 0.282029 3.88835
2758 4 2.94487 7.00145 7.05446
2691 4 7.61612 5.48443 5.19714
2981 4 7.20602 2.29958 6.88271
1108 4 1.81873 5.7828 4.82716
1642 4 5.18495 4.32915 6.39236
151 15 3.74962 1.98572 8.64428
881 15 5.87122 5.48943 5.33262
2196 4 4.23611 1.75179 6.92405
143 15 8.63903 1.38841 6.32533
2081 4 2.90234 3.56177 8.69108
2895 4 8.55793 4.98273 7.96046
772 15 5.59828 2.56484 6.23162
989 15 3.96141 8.07645 6.06142
202 15 1.33427 6.37633 6.38219
1570 4 0.930391 5.07116 7.49601
1580 4 5.40623 7.2341 5.45068
1183 4 0.228865 2.85073 5.32957
1496 4 0.167021 7.71307 6.24447
1582 4 2.36438 1.12222 4.51374
253 15 -0.116546 8.73671 7.65344
89 15 8.91641 5.66387 6.39102
1394 4 5.55665 2.19694 4.50613
2509 4 6.57394 0.0451273 8.85348
2649 4 5.83781 8.39483 9.37201
2233 4 2.07654 5.985 10.1034
2126 4 6.46068 0.83241 11.7486
2741 4 6.96839 5.91994 10.1999
1372 4 7.3631 8.35267 11.8375
491 15 6.58915 1.4315 9.99014
714 15 4.33358 6.11147 13.0778
312 15 1.66371 7.60591 10.3139
1542 4 4.64751 6.61966 11.407
868 15 6.18835 7.35955 10.8072
889 15 8.61012 5.76124 9.64415
2113 4 5.17853 2.46426 9.68217
2198 4 0.413884 5.32867 12.531
1039 4 8.15181 2.29299 9.9273
1659 4 1.28799 7.99217 11.9878
2140 4 0.276156 3.78717 9.90759
777 15 1.55791 4.6369 9.13532
2434 4 2.65197 0.762024 9.09396
2805 4 2.98867 8.50943 9.73749
1528 4 6.8925 3.23896 13.044
1326 4 0.327961 8.05646 9.2045
2234 4 3.28607 4.65588 12.9482
793 15 6.55683 1.57962 13.3235
2011 4 0.764808 4.36589 17.8245
2411 4 7.95099 0.816043 14.1523
833 15 2.55775 7.08716 15.3937
434 15 3.97625 0.439829 15.075
2077 4 4.04843 0.977602 16.7727
1821 4 2.28587 0.431523 14.6373
1363 4 0.713108 1.6644 16.7491
2629 4 4.11376 3.82313 17.3107
2799 4 3.54222 6.50677 16.7793
1272 4 1.53793 5.58934 15.191
1426 4 6.65446 4.44002 15.9607
2454 4 1.00196 3.02307 13.8419
212 15 0.952422 1.52124 14.8415
1765 4 3.62217 7.47472 14.0438
929 15 7.14972 4.57733 14.2594
2015 4 5.99716 5.80988 13.754
82 15 4.85495 2.29143 17.7609
2324 4 6.05148 8.49809 16.9997
867 15 7.64755 3.58717 17.2241
1521 4 7.34543 8.65412 14.481
1166 4 4.96298 1.55876 14.173
369 15 1.53793 4.63357 13.6876
2695 4 6.60162 2.17602 17.528
2777 4 1.60904 8.54402 15.8048
748 15 3.83762 5.41818 18.0666
1009 4 8.82944 5.13892 14.1631
59 15 0.184017 2.71345 17.9817
1065 4 0.298774 8.16469 20.9616
26 15 -0.174014 0.611838 21.6121
950 15 0.897644 8.46374 19.3603
2497 4 4.54563 1.03389 22.2162
1349 4 7.82921 4.29169 18.8107
1921 4 7.94683 7.46289 18.9223
315 15 6.18333 7.52462 18.5344
1046 4 4.21174 2.14107 19.4559
2129 4 5.49418 5.91881 18.6536
1274 4 2.66175 8.62531 19.2014
338 15 1.00311 5.55783 19.1254
1473 4 6.33132 2.96762 21.0765
2076 4 1.38953 1.43133 21.9753
945 15 7.43677 4.24452 20.6188
2982 4 6.68144 5.76938 21.1156
318 15 2.69733 1.17199 19.8414
2627 4 0.328984 5.42363 20.7418
353 15 6.15521 1.34536 21.6533
1615 4 2.73062 5.53316 19.4128
2042 4 1.29135 2.22864 19.411
9 15 -0.0261573 6.75049 21.9001
2030 4 6.32909 0.199776 20.3024
2157 4 3.3116 8.46221 21.8412
2147 4 8.88227 3.99141 21.6695
1865 4 5.4546 8.61743 19.869
2385 4 0.587804 7.07408 18.3647
2418 4 7.30967 0.976269 23.0224
1337 4 3.03106 0.562398 26.9389
2376 4 -0.00141036 2.86252 23.8936
1550 4 1.67161 4.90749 25.5182
844 15 4.73687 0.00461258 26.7535
267 15 1.68743 2.56696 23.3039
1600 4 5.18669 0.627585 25.0489
726 15 7.44773 4.5434 25.2289
1665 4 8.52431 7.16225 23.2233
2258 4 1.07402 6.81517 23.2677
760 15 3.82763 0.661219 23.8151
569 15 7.06487 1.18895 24.7554
2704 4 7.86743 0.0732209 26.017
648 15 2.13772 5.61112 23.9482
1045 4 6.42051 5.29381 23.9817
2959 4 6.90774 2.84521 25.3435
1730 4 2.8464 1.97402 24.4553
2398 4 7.25167 5.29427 26.8011
1276 4 0.503426 0.1791 25.5356
1064 4 3.72429 6.47266 24.0785
490 15 8.69782 8.16153 24.6479
585 15 2.39434 5.45161 27.0611
842 15 4.08843 8.05947 23.3306
2538 4 7.0678 8.071 25.3648
181 15 6.68236 8.77612 26.9651
2327 4 2.03145 7.24008 27.1299
792 15 0.526197 8.08164 27.304
2889 4 5.8251 7.90506 22.946
150 15 6.95799 6.53027 22.7737
1081 4 2.37837 4.23096 22.8691
2589 4 6.28784 4.53794 29.4538
186 15 4.53942 4.5028 29.0208
1860 4 8.27906 8.04452 30.8962
700 15 3.41262 6.93459 31.1375
2573 4 4.91852 7.62149 31.615
1588 4 0.141046 6.14629 31.2982
2352 4 2.8383 1.401 31.7217
511 15 7.69349 0.603647 30.7522
1241 4 6.34999 1.72552 30.5512
243 15 5.01736 1.33692 29.3339
1837 4 2.53838 7.91391 30.0012
2141 4 6.96915 7.86446 28.3787
1861 4 3.99701 2.76942 29.1409
818 15 7.69753 4.58622 28.3456
2151 4 3.64696 5.42001 30.2147
1152 4 8.81541 5.76145 29.0752
2752 4 8.24374 3.0458 27.9826
2441 4 5.77595 0.816491 27.7442
1014 4 1.41951 4.46769 28.2546
142 15 8.52458 7.47395 29.2484
1455 4 4.12293 5.01518 27.3672
432 15 -0.192417 3.71409 28.2768
2200 4 0.0138663 2.07881 28.9142
1885 4 4.09335 -0.0334918 29.8713
918 15 3.42306 -0.19568 31.4986
2326 4 8.10608 0.733584 32.4721
966 15 1.13482 5.4784 32.6255
1760 4 4.82237 5.93055 34.1717
1883 4 1.65646 2.61484 34.2793
1442 4 4.30282 8.62545 34.2948
561 15 1.30908 1.27241 35.4381
1680 4 2.19283 6.74612 35.5975
102 15 2.7578 2.66608 32.9504
2413 4 3.58389 4.10759 35.9642
437 15 4.89726 4.18418 34.7019
1223 4 4.40182 3.1145 33.348
2004 4 6.5504 4.0557 35.2721
290 15 0.800306 5.75515 35.7969
1930 4 0.303631 5.25591 34.1021
925 15 3.45613 7.03187 34.378
1401 4 2.4598 6.66329 32.7194
1040 4 5.11893 1.9276 36.4893
2186 4 8.67586 2.57779 34.5576
1900 4 7.47754 7.21625 36.4729
2510 4 1.63246 -0.261416 34.6578
2969 4 1.99747 4.04934 32.0374
2402 4 5.08897 14.5635 3.05148
2429 4 8.34584 16.6128 -0.00643272
1213 4 3.02154 15.2122 1.33064
951 15 4.41853 15.909 2.14696
110 15 3.16078 13.7337 0.421627
146 15 2.34677 9.17151 3.14022
1203 4 5.54128 10.8336 2.8568
1723 4 1.2356 10.4843 2.91675
541 15 8.3115 12.6402 0.231479
1145 4 3.1454 12.3686 1.56519
2002 4 0.715418 17.6796 2.60111
2399 4 5.84 16.573 1.28757
1204 4 3.72467 17.1363 3.18233
1704 4 7.56941 15.4933 3.93984
859 15 4.24318 10.9663 1.62267
2605 4 -0.0708384 14.931 3.19148
1094 4 7.35644 13.3522 1.60511
470 15 6.78996 14.0744 3.17546
1497 4 3.50718 9.29434 1.74295
66 15 -0.0953301 10.8609 1.84864
1794 4 0.217263 11.4608 0.181423
2618 4 4.89858 13.6752 -0.0749879
2468 4 8.73055 17.8976 3.30176
1162 4 5.02695 10.8636 0.0584415
808 15 6.58543 16.8576 -0.278793
458 15 3.09102 12.9401 6.00029
679 15 4.96974 15.0398 7.53285
831 15 7.30807 13.0797 8.79433
1842 4 4.17245 14.2474 6.15516
2463 4 4.36317 9.41956 7.20316
1746 4 6.42607 10.3081 5.75021
1373 4 1.59848 16.6976 6.57768
7 15 1.07872 11.7053 8.19773
1175 4 2.69513 12.2111 7.61161
2068 4 0.021961 13.1079 8.24153
2519 4 0.686667 10.2118 7.3132
1487 4 5.62342 13.6274 8.4743
384 15 8.00052 10.7371 6.51195
1639 4 1.32602 13.2691 5.61045
645 15 7.06716 17.7616 7.11414
227 15 0.0879099 17.5468 6.47278
196 15 2.63847 17.1437 7.98599
1525 4 6.25311 16.1625 7.04726
1997 4 8.02746 12.3349 7.33962
2257 4 8.37316 9.5793 7.82477
2377 4 3.76456 15.8848 8.52943
2458 4 8.61081 17.2024 7.79947
2275 4 3.96487 11.7497 4.97854
1923 4 6.79842 12.8985 4.44523
1499 4 3.20923 8.93961 4.71374
157 15 -0.195599 13.5537 6.50238
642 15 5.73332 11.485 4.56744
515 15 4.35688 9.20931 8.8897
2602 4 7.74037 16.4535 11.6092
262 15 6.86238 15.0884 12.304
614 15 8.32427 12.1141 11.6642
1700 4 5.42214 14.758 11.3002
1332 4 3.13038 13.2936 10.7944
2893 4 1.39175 11.2569 9.88756
1724 4 4.52043 10.8629 9.70843
2546 4 3.03567 14.9265 13.163
1608 4 1.53788 17.6774 9.3347
1034 4 8.01552 13.6997 12.5146
1977 4 7.35115 11.9626 10.2025
159 15 3.04296 11.5011 10.5229
1358 4 7.98097 10.952 12.9329
2875 4 2.78727 10.796 12.1338
73 15 4.08957 13.947 12.1344
2746 4 8.12454 14.5112 9.34777
907 15 6.91365 9.53192 13.049
2026 4 0.227687 14.1684 12.6738
112 15 4.04808 10.9998 13.3894
2302 4 4.78786 12.6362 13.1635
609 15 -0.196997 17.7912 9.40045
2355 4 5.21433 9.77741 13.0631
2826 4 0.959318 16.8939 13.2874
111 15 -0.0775551 8.99034 12.5848
1805 4 7.35309 16.4078 16.2901
2866 4 3.11864 15.7497 17.5464
54 15 1.5866 10.2256 15.1295
2494 4 3.20466 10.9276 14.9641
1643 4 6.13173 13.8622 16.4899
2687 4 4.00047 17.6112 15.6822
2373 4 1.08223 14.8429 15.4489
697 15 6.33332 12.1655 17.075
24 15 7.19076 9.45519 16.0088
1000 15 7.19975 14.7312 15.4248
268 15 1.44457 15.7938 16.9286
2268 4 0.721897 11.2898 16.2861
139 15 1.33364 15.2126 13.6878
40 15 0.726963 11.4794 17.9884
180 15 3.96945 17.2752 17.4
1367 4 6.56606 11.0735 15.7494
1501 4 6.33876 15.4404 14.0691
1492 4 1.08995 17.4294 16.4097
2580 4 7.87302 12.0569 17.9881
1650 4 8.62345 13.8602 15.2275
794 15 7.52371 17.8791 15.1455
1396 4 0.509979 10.236 13.7612
1863 4 8.72823 9.06502 16.6954
1572 4 4.86589 11.679 17.9248
801 15 7.09695 16.6924 18.1051
431 15 4.36158 14.1003 21.6809
1664 4 0.27175 9.97042 18.7523
2520 4 3.92381 10.9793 20.6109
484 15 7.21811 15.499 20.8339
2584 4 8.55905 14.7021 21.6173
11 15 3.87292 9.18271 20.3408
1386 4 8.46755 17.6458 18.5737
2101 4 2.12825 12.3805 18.5737
1325 4 4.38149 13.7035 19.9358
2367 4 0.689743 16.6297 21.5226
2881 4 7.09322 15.1731 19.0217
959 15 2.44922 16.6831 22.096
107 15 3.88323 12.1313 19.2716
1299 4 5.88791 15.0045 21.8054
2461 4 7.40861 17.2211 21.1768
1216 4 3.45728 17.2867 20.7677
1619 4 0.345986 13.6879 20.8116
1740 4 0.508834 15.1045 18.2882
1422 4 5.49578 17.4618 18.2987
546 15 -0.22015 13.7878 22.4829
2361 4 2.96933 15.0136 22.2879
374 15 1.22166 13.8343 25.2359
1181 4 1.4545 16.8933 26.2382
2165 4 3.00427 14.0179 25.4537
2750 4 3.56141 9.30932 24.4622
459 15 1.32001 10.8733 26.2108
1981 4 2.97378 10.9593 26.725
2437 4 8.31562 17.8715 25.479
2952 4 0.991062 12.15 24.9383
744 15 4.32311 14.8851 26.2364
1668 4 7.24059 12.644 23.5738
1593 4 0.69838 14.6158 23.7781
557 15 2.91989 17.734 26.7539
948 15 4.28836 10.2774 25.8185
1247 4 5.69583 14.3992 25.1722
736 15 5.6373 12.9137 24.2353
2831 4 5.29575 11.5268 25.3007
2296 4 0.456149 14.4083 26.8828
1647 4 4.29221 16.6885 26.2599
761 15 0.0926803 16.2041 27.0762
1431 4 0.542795 9.29765 25.8681
1982 4 4.96162 9.14385 27.0006
173 15 8.55257 13.681 23.1238
1254 4 2.50781 17.6594 23.5813
2354 4 4.61821 12.7475 22.7559
2553 4 7.65248 10.223 27.1979
880 15 7.05747 16.6078 29.2259
2292 4 0.585319 9.52447 31.6116
2915 4 5.47099 17.2913 29.1494
397 15 7.93422 11.2186 28.6254
785 15 5.84881 13.768 29.1119
1133 4 4.77137 12.6709 30.0707
376 15 0.549151 13.2706 28.3426
2729 4 1.9116 13.7937 29.429
60 15 1.50289 9.32321 30.1002
355 15 2.97548 12.542 30.3515
2403 4 6.70859 15.046 29.9443
2311 4 7.0965 12.7813 28.4217
203 15 7.89602 9.71179 31.4891
1189 4 2.39316 10.9305 29.812
2622 4 7.9632 16.2496 27.7371
2401 4 4.67637 14.2881 27.8418
2484 4 7.31135 10.7723 30.1844
2148 4 8.18736 17.65 30.1716
1827 4 0.506911 11.6525 27.6467
1281 4 -0.102739 16.6281 28.7698
1369 4 0.333005 8.97203 28.8145
732 15 8.35905 17.7932 31.9142
928 15 0.903272 12.3048 35.5807
1798 4 4.90753 15.7733 34.7182
298 15 5.54871 12.2175 35.9479
1266 4 2.73285 12.8426 32.1339
2524 4 1.93352 11.2745 34.4966
2927 4 7.30821 12.1726 35.7671
2185 4 6.55891 9.64063 32.6782
2322 4 4.79217 12.1344 34.254
886 15 3.33011 11.6611 33.44
1849 4 6.10374 15.6871 35.2464
2111 4 3.78648 10.2693 32.3711
1192 4 6.81066 17.624 32.9313
685 15 4.94009 9.0692 32.7108
2388 4 6.8218 14.2314 32.957
2561 4 1.9067 13.7542 36.0893
2232 4 -0.262617 17.2779 34.6207
2796 4 7.32246 13.1916 32.6146
2800 4 -0.289095 13.1632 34.5822
2628 4 5.89513 24.8164 2.73921
301 15 5.43574 26.5431 2.2504
1378 4 4.06566 26.2466 0.915008
2841 4 8.27436 20.2293 -0.155301
1100 4 3.83779 23.2205 1.04412
2922 4 8.4279 23.1802 2.6082
2808 4 8.07041 20.6785 3.68798
556 15 3.0262 24.7138 1.43463
1687 4 6.79737 27.2975 1.52686
737 15 -0.0894224 25.7741 1.56588
659 15 1.82246 20.0773 0.508299
283 15 4.63319 24.4263 4.00081
1055 4 2.99531 19.5619 1.73999
2043 4 1.38267 24.9973 0.858338
2046 4 2.9692 24.8909 3.27524
1764 4 0.504734 20.9897 1.36889
1179 4 0.15223 25.8954 3.36533
2515 4 0.0659826 21.1037 4.22497
215 15 2.42086 18.2988 2.90911
53 15 8.44251 22.3852 4.18168
1755 4 8.62919 23.3105 -0.034801
2587 4 5.73942 21.2703 -0.202715
345 15 0.91105 26.5393 4.83747
1689 4 0.691157 25.2648 6.07195
2825 4 3.67464 18.4124 7.2013
2204 4 6.37108 23.7227 7.86253
2823 4 2.35339 19.0388 4.49982
113 15 6.85738 24.3166 6.30455
629 15 4.77053 19.5863 7.89809
2124 4 0.285264 19.2792 6.50663
2390 4 7.41097 22.8682 5.50825
917 15 4.65457 23.8968 8.33626
1059 4 8.27604 25.3579 6.62683
2912 4 3.49584 23.5058 7.00452
2688 4 5.60285 25.1342 5.37072
2921 4 4.8582 20.9851 6.78981
25 15 1.14688 20.1544 5.18571
516 15 3.66182 22.0206 6.05075
2652 4 2.05913 21.3222 6.02833
1852 4 6.40336 18.8434 8.23425
1270 4 4.3648 25.6201 8.54849
189 15 8.84865 26.7249 7.54101
2513 4 7.17845 18.5904 5.54219
123 15 8.51861 19.1939 4.5218
1819 4 2.54897 27.2057 5.0097
2829 4 4.18924 22.7354 4.46336
2784 4 1.63643 26.4133 8.68937
1598 4 6.79861 23.9634 11.5992
2504 4 4.34995 20.0007 9.6061
1609 4 4.0543 24.1962 12.1926
2724 4 1.52618 23.81 9.79001
2828 4 5.20261 21.44 11.9563
682 15 4.0803 21.4198 10.6179
836 15 0.681683 25.338 9.67143
1839 4 1.04553 19.1464 11.5906
939 15 1.63659 18.5155 13.1043
571 15 3.24517 26.8236 9.33176
1234 4 3.42963 18.5817 13.1408
891 15 5.50953 23.1717 12.5248
1551 4 0.126299 25.9094 11.2814
1466 4 0.819945 23.3993 12.8054
1799 4 2.46895 21.5098 11.2634
339 15 1.18566 22.7587 11.2109
555 15 3.52744 25.8995 12.5747
2888 4 4.45858 22.9388 9.76314
488 15 0.614821 25.1251 12.7651
220 15 8.52849 24.0299 11.243
2566 4 8.49976 27.2006 9.22437
2211 4 3.14354 26.7957 11.0908
2344 4 2.04328 25.7742 13.5143
2409 4 -0.232492 21.7979 11.01
1004 4 8.90296 24.0629 9.45904
1416 4 7.50376 26.4353 13.392
994 15 6.6281 23.4624 15.5137
1611 4 0.469929 26.9927 16.1844
1649 4 5.94043 24.506 16.7131
2486 4 0.421088 23.9162 16.2255
44 15 3.07591 21.4672 17.4732
2406 4 4.89473 20.3495 15.0696
750 15 1.83663 24.341 17.2004
1488 4 7.13804 22.0224 16.3637
742 15 6.16077 20.5826 16.3083
21 15 4.72457 25.578 17.4058
1627 4 7.97455 24.0642 14.4883
1080 4 2.9381 25.7217 16.5921
1710 4 7.14382 19.1027 16.4507
598 15 4.673 18.707 14.4578
791 15 0.810666 19.1939 16.1657
2703 4 5.44638 23.0607 14.2709
1990 4 0.927685 19.54 14.368
1851 4 3.17914 23.1619 16.944
2986 4 1.82241 20.6196 16.6035
2569 4 4.92254 20.958 17.745
1911 4 6.28956 18.2224 13.8898
1961 4 5.27532 27.2304 17.2591
1523 4 4.80889 26.5835 13.5628
1313 4 8.50808 23.1829 22.0291
2375 4 7.16453 20.2065 18.8579
774 15 6.68434 23.1461 21.7387
2598 4 3.07655 18.5428 18.3112
1744 4 4.33448 25.2214 19.0586
2172 4 2.79188 21.5815 19.2575
887 15 5.58278 20.8736 19.5074
2224 4 1.66497 19.5795 20.6156
1191 4 0.981079 22.2405 21.5711
2338 4 2.33433 25.2473 21.6642
1322 4 6.853 26.3625 19.4997
251 15 5.37802 25.8397 20.3491
1578 4 4.65872 19.728 20.4666
1800 4 5.94778 22.3897 20.2445
806 15 1.2607 21.3401 20.0953
832 15 3.16211 18.8254 20.0048
64 15 1.42522 25.8115 20.3073
1742 4 1.43937 24.7203 18.8501
2961 4 6.01469 24.8184 21.5906
356 15 8.70359 19.3694 19.1375
1586 4 4.52762 27.1916 21.1154
1063 4 -0.119481 21.6691 19.0838
619 15 8.58305 18.2159 22.1185
1087 4 3.45492 22.9242 22.7395
1058 4 2.9598 25.3931 24.3017
2568 4 1.00845 23.424 23.9371
2272 4 7.2502 26.932 24.2562
2606 4 6.22205 24.5558 25.4245
2315 4 4.90649 27.2274 25.7317
1144 4 4.4253 22.3174 25.5451
536 15 7.9897 19.4784 24.871
530 15 0.623412 21.8447 23.3201
471 15 2.788 19.3614 24.144
1771 4 3.00199 19.2894 25.9152
423 15 3.22624 26.8338 25.3338
162 15 5.47981 23.328 26.5877
47 15 4.51334 22.0109 23.8281
2236 4 4.11115 20.2837 23.4832
687 15 6.38174 26.3412 25.6384
1926 4 2.24687 26.6629 26.8558
1878 4 6.54373 20.0604 25.7545
332 15 2.34755 24.2479 23.1341
1925 4 1.30909 20.3684 23.9528
2471 4 7.55425 19.2339 23.1702
1267 4 6.15893 22.3601 23.2367
2617 4 7.33754 26.6841 27.1513
2345 4 0.32675 24.1114 31.0582
2407 4 6.05662 20.0281 31.2832
797 15 4.6197 26.8735 30.8296
1732 4 4.64498 22.5475 29.9859
534 15 4.30725 24.1544 29.4041
2591 4 2.55834 24.5759 29.7106
2827 4 0.152682 19.292 29.604
781 15 1.1364 23.6462 29.5655
2303 4 5.15723 25.2186 30.5008
329 15 5.91929 21.7667 30.947
1601 4 0.752065 23.925 27.8752
2675 4 7.88065 24.7064 31.2915
1918 4 4.39752 24.1978 27.6697
1711 4 7.47904 22.264 30.2648
2526 4 7.92502 19.9501 28.364
2421 4 1.12743 21.8307 29.5826
2307 4 3.36491 18.7039 30.7796
2811 4 5.04957 19.9557 28.2605
379 15 8.83027 23.2067 30.9682
396 15 4.38246 18.7044 29.2764
646 15 -0.236627 20.8736 30.2387
592 15 6.56058 20.5527 27.4759
1176 4 6.58501 22.3271 27.4008
1343 4 2.89076 18.2143 28.3912
2635 4 5.39018 22.1098 32.6202
890 15 4.44339 23.3804 33.3759
840 15 0.891552 18.5753 34.7697
276 15 6.05439 19.2715 32.9228
2980 4 7.22897 25.5605 36.1657
883 15 0.825175 21.3037 33.1435
596 15 3.05414 19.3289 32.4381
2997 4 4.40908 19.1274 33.4651
486 15 7.2424 24.9829 32.9715
1661 4 0.43366 20.2665 34.4984
1196 4 5.47553 24.8576 33.2413
2813 4 8.0345 23.919 34.1289
1658 4 3.94074 23.1414 35.0526
20 15 6.74162 20.0986 35.859
2389 4 1.30779 18.6273 36.5447
1284 4 2.49664 20.979 32.5067
2933 4 3.09492 26.2184 35.1564
273 15 8.56109 24.5966 35.6641
2444 4 0.663535 23.0407 33.6425
1350 4 6.84619 20.375 34.0829
2134 4 7.48386 26.7483 33.3556
1032 4 1.02464 25.9209 33.1929
954 15 1.26705 24.2902 32.5708
2066 4 2.98481 23.8142 32.4773
323 15 2.42305 26.8846 33.6279
717 15 4.18988 22.1175 36.4705
2036 4 2.78743 20.9819 36.191
1536 4 3.60144 26.9481 32.2615
1987 4 1.93311 18.2611 33.3286
1370 4 6.08583 18.4382 36.0811
657 15 3.91818 27.3213 36.2025
564 15 6.9841 27.2571 36.5429
1998 4 2.83599 35.7413 2.71286
105 15 2.64296 34.0031 2.40285
1280 4 4.1828 33.1896 2.73179
2183 4 4.91543 27.6667 3.62437
1682 4 1.70605 31.0142 1.11611
594 15 5.16519 32.042 1.80435
414 15 8.03093 32.7181 3.42229
1344 4 2.12416 33.8562 0.678223
593 15 2.83795 29.7485 1.1523
1830 4 2.19393 28.5238 2.39259
1434 4 6.69044 31.7547 2.71865
394 15 3.31145 28.2877 3.91041
1644 4 1.40249 33.5385 3.516
1891 4 4.45262 30.4346 1.50854
1446 4 5.30842 32.7652 0.0876061
258 15 8.5352 36.1285 0.249798
2219 4 7.13604 35.0384 0.477641
391 15 1.61016 32.3592 -0.0971709
2590 4 7.50901 34.3504 3.98096
2833 4 2.97286 28.7345 -0.245548
1820 4 8.51534 28.1659 -0.289179
389 15 8.03303 33.2091 8.30176
2802 4 6.6333 34.2214 7.95919
2684 4 1.48395 30.2047 6.85709
2563 4 4.34328 30.3785 7.06009
1424 4 7.39446 31.5622 8.43447
936 15 1.73323 33.6851 5.26969
1781 4 0.0996855 33.4631 6.03187
1380 4 2.81895 32.4612 5.76556
2142 4 6.10977 28.4275 8.27641
662 15 2.95733 30.6996 6.00628
2100 4 2.39485 35.3295 5.50796
533 15 0.02582 29.3991 6.37936
1294 4 3.41966 29.9552 4.51757
1944 4 8.7084 31.6582 4.65574
1894 4 4.06559 35.3529 8.43518
686 15 4.65791 29.4726 8.5346
2199 4 4.91634 36.455 4.66874
616 15 8.47909 35.8213 4.45234
1940 4 0.0196693 27.8987 5.4986
2936 4 1.1485 35.1778 8.77852
1115 4 8.22609 36.5524 6.0622
667 15 3.11563 36.4036 4.34039
97 15 6.6979 31.1866 9.98486
1461 4 4.08836 32.9505 12.2961
2019 4 6.58662 34.0772 13.352
2331 4 1.86759 30.1021 12.4352
2339 4 0.212669 29.9795 10.2555
985 15 2.67042 33.7479 11.6599
2261 4 5.76114 34.7591 10.6889
941 15 5.74244 33.5351 11.9928
1906 4 4.98685 30.6464 9.82302
796 15 7.09717 28.218 9.80068
308 15 0.850404 31.1838 11.4005
442 15 2.69639 35.8665 9.32726
2120 4 8.87501 33.8089 9.85453
1718 4 6.84772 32.2918 11.3261
2858 4 2.90382 35.4645 11.0294
2028 4 1.82092 32.4683 10.6697
1823 4 7.6874 29.7765 10.3613
2499 4 1.5654 33.9247 12.9803
691 15 -0.220353 33.7557 12.6517
850 15 5.76301 35.3242 8.99553
2896 4 6.13118 27.3881 11.0258
177 15 6.21592 27.4099 12.8639
1880 4 6.30361 29.0364 13.5226
2064 4 3.26579 28.5321 9.01622
2356 4 7.95237 31.4237 13.8007
964 15 8.41973 34.0104 16.1625
1972 4 7.20789 35.128 15.7634
2720 4 2.50586 28.5265 17.2337
2181 4 4.34023 35.4709 14.7572
753 15 5.82185 34.5832 14.8609
1612 4 7.79097 32.7299 17.3149
371 15 1.59484 30.0234 16.8526
311 15 5.99908 31.9455 16.7116
2118 4 1.40236 30.4097 15.1694
390 15 7.35789 29.9923 14.6102
1134 4 2.66443 28.1391 14.4203
1994 4 5.22377 33.0083 15.5843
2059 4 6.34509 30.3985 15.9842
2248 4 -0.0437756 29.8346 17.5927
2103 4 8.75475 29.1754 15.2678
314 15 1.39284 29.2166 13.8277
1178 4 2.50844 31.3147 17.7275
193 15 2.23065 27.3761 15.9916
2844 4 -0.206726 28.3494 13.5668
1490 4 8.19834 27.4286 17.3252
1725 4 6.02363 34.6963 22.0831
413 15 1.04922 29.7925 22.1105
2287 4 2.78601 29.3168 21.8224
757 15 0.141879 34.7384 19.6759
1261 4 4.33036 35.1899 19.979
2396 4 6.57369 29.1372 19.1254
692 15 3.79088 31.078 18.8711
701 15 3.1307 33.8962 20.3852
2152 4 3.89137 29.415 19.2488
719 15 3.27643 28.3226 20.4644
933 15 8.20516 33.0351 19.2747
117 15 6.01743 35.3041 20.4265
2966 4 6.98049 34.3062 19.3703
709 15 8.06225 29.9479 19.5551
1003 4 2.58075 33.843 22.1342
1023 4 1.78861 34.2554 19.1937
1232 4 3.51485 32.1816 20.2867
2974 4 7.74805 31.6051 20.0972
2094 4 0.564122 30.7367 20.7263
2574 4 0.305075 28.203 22.2303
2549 4 0.120778 36.4106 20.1342
605 15 6.76869 27.6607 18.225
1502 4 5.33273 31.6902 18.2811
2477 4 8.60985 28.8907 20.8386
1224 4 1.94274 27.4588 19.8325
1690 4 7.71487 32.4354 22.6515
2723 4 0.63766 34.3739 24.2352
161 15 3.65302 33.9986 26.4065
2098 4 4.49834 30.0224 26.2428
2941 4 0.183396 28.7931 26.0782
1524 4 2.03381 34.7096 26.7349
1472 4 2.61589 28.3827 24.6337
1102 4 3.46602 33.4682 24.7196
582 15 1.53309 29.6527 25.0533
1443 4 1.94881 30.916 26.1296
2906 4 0.981378 30.6427 23.6545
41 15 2.31187 34.4282 23.7209
1128 4 7.4129 34.5653 24.5509
2967 4 7.2858 29.226 26.0356
176 15 7.89178 31.5309 24.1336
13 15 6.19545 30.5012 26.4993
612 15 1.54824 36.4711 26.8341
788 15 3.3383 30.9554 27.2402
295 15 8.31521 28.1077 26.9586
1605 4 6.63892 31.7419 25.2791
1139 4 2.80459 36.1277 24.1295
1825 4 5.00548 35.1102 26.6261
1562 4 8.09071 29.9 23.5789
558 15 8.69275 35.5361 25.3461
352 15 0.718779 27.3926 27.2733
70 15 7.56806 34.1711 22.8545
2246 4 7.15748 33.206 29.4976
56 15 7.67143 34.2556 30.8528
1452 4 0.966482 28.2036 28.8614
302 15 6.69231 31.4778 29.7775
2450 4 2.4712 29.2205 31.1595
2816 4 3.01935 30.3546 28.8504
524 15 2.61673 28.738 29.4668
2466 4 8.27749 30.5528 30.0622
2495 4 3.6878 27.4105 29.3662
1673 4 6.07661 31.021 28.1975
2531 4 7.05911 35.8403 30.438
1922 4 5.61154 31.0497 31.1248
2942 4 3.77372 32.6407 27.4907
2420 4 1.98062 35.6514 31.7297
2244 4 6.11302 27.7476 30.9424
2145 4 0.635638 36.2894 28.3719
1335 4 -0.25158 32.0837 29.0764
472 15 7.56463 27.833 31.9632
1867 4 5.6787 34.7707 34.9162
864 15 8.40838 31.7768 34.5819
1070 4 1.92209 28.6043 33.8242
947 15 2.58756 32.6596 33.7324
1770 4 6.72549 31.619 33.8897
2971 4 4.08832 33.3095 33.0225
2534 4 5.57181 27.7127 35.6791
502 15 5.35313 34.5743 33.1961
1695 4 1.27242 33.8811 33.8074
752 15 5.9908 30.5025 32.7479
1013 4 8.10715 32.8939 35.9173
305 15 1.10744 35.5702 33.2735
1802 4 2.65914 32.0176 35.3717
916 15 2.78147 29.6828 32.7451
1184 4 2.07799 31.3272 32.6947
2310 4 4.79843 36.1976 32.637
1763 4 4.45366 29.9293 33.5013
2288 4 -0.0364022 32.2362 36.1364
1158 4 6.85433 34.0294 32.4273
2599 4 7.26345 29.34 32.8264
205 15 6.55378 33.8187 36.1324
1033 4 12.6449 3.21502 0.980819
348 15 14.8313 3.73534 3.50364
182 15 12.0149 4.32482 2.18077
2604 4 15.767 3.62727 0.556541
2095 4 13.1873 7.55536 0.95584
509 15 16.75 7.83749 1.92899
1397 4 16.0704 7.401 3.5363
2259 4 14.6617 2.07316 2.95296
454 15 11.457 7.17337 0.617867
1417 4 16.4034 4.35616 3.07015
2435 4 10.8363 3.64547 3.31257
678 15 17.1565 3.59168 1.65593
1772 4 14.4662 0.154883 0.857246
2521 4 13.561 4.86019 2.92626
1130 4 11.1236 5.63204 1.4377
299 15 13.9684 0.414111 2.48132
1303 4 16.0324 6.99899 0.507837
1163 4 12.2055 0.185937 2.65329
2213 4 17.5109 1.85898 1.87807
1648 4 10.432 8.65976 1.04113
319 15 14.475 7.21865 -0.268955
677 15 13.6823 3.67575 6.38632
2849 4 17.2302 3.02992 8.39231
2349 4 10.3557 4.83471 5.7764
512 15 14.891 8.46353 7.54811
422 15 10.6858 3.28942 5.03481
2048 4 14.3266 2.62509 7.66961
2717 4 12.296 2.77911 5.72288
1942 4 13.1599 5.24706 6.88799
1846 4 15.0638 3.90418 5.23751
351 15 13.5666 5.8019 8.5964
1829 4 15.5072 7.53833 6.17745
166 15 9.5734 8.35005 7.92054
436 15 16.7229 8.11593 5.02663
2765 4 14.1726 7.48181 8.81363
1788 4 9.8168 1.65028 7.54844
1084 4 9.51348 1.99213 4.89867
2012 4 17.1357 1.00928 5.85126
2818 4 9.39425 7.32485 6.46924
2607 4 17.1964 -0.207094 6.00447
2670 4 18.1179 4.79428 6.56784
725 15 15.5556 3.32008 8.79561
2360 4 10.0551 2.20044 12.9676
1581 4 15.3213 2.63221 10.3552
1999 4 12.4944 0.307548 11.0043
407 15 13.5123 0.564618 12.4648
2571 4 9.57749 4.90296 10.8185
2962 4 17.417 7.02211 10.0832
698 15 16.1249 1.94203 11.7102
817 15 17.5706 4.4116 13.4911
2112 4 12.0126 4.21406 11.9958
493 15 11.2075 4.42919 10.467
1879 4 16.4269 3.10676 13.0379
1705 4 10.9176 2.88709 9.65604
1285 4 12.0575 5.70328 9.49675
2383 4 15.3069 0.470979 12.2101
2667 4 9.26765 7.41542 9.44627
213 15 9.68153 1.68848 9.28285
1947 4 17.8057 1.49757 11.2001
2699 4 9.90921 0.108724 9.96572
2832 4 14.0424 6.65314 11.9521
1435 4 13.8687 7.77646 11.5627
847 15 17.248 8.74091 9.69138
871 15 11.6448 2.9866 13.2176
2983 4 13.0591 2.0021 13.4309
2660 4 15.0472 4.988 8.95726
2195 4 9.18427 3.26312 16.5262
1444 4 16.5724 5.73611 14.2391
1160 4 10.4437 5.91673 16.2942
2374 4 10.7287 0.074116 15.2136
141 15 10.0247 4.48186 15.3938
2365 4 13.3148 6.838 16.6419
2592 4 16.0149 7.96014 16.0646
2459 4 15.7475 5.24678 16.9797
1507 4 11.5179 3.94975 14.6696
2863 4 11.3133 8.4667 15.2351
628 15 16.721 6.38246 15.8729
740 15 11.495 7.37706 16.6096
535 15 16.6508 3.88705 18.0731
591 15 14.3288 6.1167 17.85
2308 4 13.4529 -0.0979554 16.1364
1202 4 15.7204 2.40111 18.1096
284 15 13.3567 -0.219844 17.8819
905 15 9.6764 0.591818 13.8394
1955 4 13.7995 4.64258 18.8123
62 15 11.6638 0.613857 20.1442
2391 4 11.0098 2.26698 20.4509
849 15 16.3083 0.780351 18.6749
1097 4 16.7126 4.736 19.7207
2965 4 18.0431 5.48588 22.2055
2306 4 16.4389 0.802657 20.4627
2721 4 16.7341 3.05126 22.2314
643 15 9.27893 8.53734 18.3528
2347 4 11.3512 4.96505 20.3842
2228 4 15.2511 7.27983 18.749
2535 4 13.5922 6.56089 21.055
309 15 17.7857 7.25133 21.9288
2067 4 13.8747 3.60042 21.2465
233 15 13.1466 4.97245 20.4963
823 15 17.5891 4.16089 21.1217
1164 4 16.1977 7.8061 21.4038
240 15 10.5569 3.7126 21.3224
427 15 14.7841 7.78114 20.3567
587 15 13.2777 0.431953 22.5966
2557 4 13.319 0.230216 20.8014
1866 4 12.2928 0.954151 18.5044
766 15 14.9928 3.13167 22.5721
1479 4 15.0734 -0.293501 18.2104
2475 4 11.5658 0.883675 22.6341
1510 4 10.9726 8.05278 18.2354
1075 4 17.7161 -0.247758 18.2575
1831 4 13.0063 8.29519 24.6495
1824 4 9.67591 1.89815 24.4336
2060 4 14.0004 5.81858 25.9993
85 15 15.4082 4.91918 25.5578
779 15 10.362 3.59949 24.521
1876 4 15.1363 8.32721 26.6104
1939 4 14.8666 4.05276 24.0989
1387 4 12.3545 0.991321 25.314
1776 4 15.6713 3.81687 26.8737
229 15 10.882 0.630564 24.284
2902 4 11.1976 3.99211 23.039
820 15 13.6247 7.52099 26.1281
2173 4 11.5048 3.59232 25.891
2369 4 16.9158 5.61214 25.048
2946 4 14.4905 1.5514 23.1132
109 15 11.9277 2.08226 26.6715
2135 4 9.72541 7.48094 25.8665
2630 4 16.5396 -0.0793652 23.1496
2216 4 18.0326 7.78978 26.4292
2088 4 9.15973 4.75449 24.6314
1354 4 12.2691 7.5423 27.3116
722 15 10.8061 8.37685 27.0345
1898 4 18.0335 7.8474 23.6266
2136 4 15.6353 0.678642 27.1947
106 15 14.9858 7.11099 30.1131
721 15 14.6402 1.42562 28.4178
553 15 11.4415 3.07173 30.9708
1423 4 16.4349 7.9357 30.743
1291 4 12.7633 1.96375 30.9558
1275 4 14.215 0.175223 29.6359
2179 4 12.2444 4.66101 31.0728
1779 4 15.3121 5.60793 29.2525
815 15 13.0183 0.255308 30.8812
402 15 16.1115 4.15848 28.5286
2127 4 10.5964 3.33954 29.518
1653 4 15.5053 2.71847 29.4104
1440 4 16.868 0.565572 31.248
1018 4 13.2122 2.29161 27.8319
2789 4 9.76031 8.5266 28.4931
71 15 9.57408 2.16898 28.7318
2363 4 13.9808 6.90317 31.5321
2053 4 14.1808 8.36631 29.0965
1474 4 10.5965 1.33927 27.4813
2897 4 17.7892 4.40629 28.84
49 15 18.017 1.83803 31.4048
1589 4 17.0905 3.27528 31.7758
1418 4 9.09562 0.832661 29.7443
1393 4 10.0032 7.75548 33.2839
1458 4 16.8239 0.801433 35.9137
485 15 13.3558 5.32751 32.1478
2978 4 10.0894 2.88419 32.0732
236 15 16.367 4.36983 32.9916
1590 4 11.2619 7.07747 35.7442
814 15 15.1635 4.06023 35.8293
35 15 9.37267 1.68862 33.2094
1656 4 16.4857 3.94749 34.7111
2188 4 11.0771 3.80955 35.6156
1715 4 10.7022 0.523995 33.5314
996 15 15.4765 -0.23957 36.3556
100 15 10.9591 6.52401 34.1139
2677 4 14.3305 -0.0539561 35.0663
430 15 9.36811 4.0799 35.2944
1693 4 12.4963 5.83855 33.6692
1904 4 14.5447 4.11399 32.6041
2935 4 9.66115 5.39636 34.0873
2187 4 14.3444 5.61675 35.8411
911 15 12.3409 2.62253 36.1655
2192 4 11.6977 0.987233 36.1167
2639 4 16.8371 6.05011 32.6191
2378 4 13.9141 2.81165 35.3437
1126 4 14.4394 8.55617 35.474
1021 4 17.9929 8.07149 34.4522
2585 4 13.7095 -0.229286 32.436
2075 4 10.1442 15.5606 2.25358
825 15 16.2798 10.6781 3.26337
2552 4 12.4448 12.4278 2.16035
214 15 9.68088 15.5768 0.519627
1465 4 16.8867 9.62493 1.9657
756 15 12.7336 12.0027 0.383249
1076 4 14.4935 10.3492 3.0727
1001 4 13.9757 17.0528 3.60639
172 15 17.9892 13.3883 2.15227
1741 4 16.8672 12.3299 3.12933
935 15 13.1815 11.4571 3.52263
1333 4 14.2526 11.1085 0.265613