ITEM: TIMESTEP
150000
ITEM: NUMBER OF ATOMS
3003
ITEM: BOX BOUNDS pp pp pp
-1.2234091560429405e+00 3.6092810383892683e+01
-1.2234091560429405e+00 3.6092810383892683e+01
-1.2234091560429405e+00 3.6092810383892683e+01
ITEM: ATOMS id type x y z
2935 4 6.80066 5.86055 1.83153
770 10 1.79202 1.55602 -0.236713
2142 4 4.65306 1.00319 1.978
2630 4 1.75501 5.30437 1.04954
290 10 3.76789 4.80052 3.06136
2898 4 4.18608 3.5688 2.1851
1862 4 0.794056 0.511112 -0.0401993
426 10 4.02357 2.19958 1.44618
1913 4 -0.154399 7.01787 0.449589
525 10 5.66662 6.7522 2.11232
1834 4 -0.652063 4.98512 1.86822
991 4 4.59294 2.60573 -0.0202976
1893 4 2.40496 2.13286 1.14057
799 10 0.35271 5.52914 0.754201
1852 4 -0.255153 4.72384 -0.531436
1682 4 4.14093 5.95647 2.10625
1054 4 3.0083 1.00505 -1.09751
923 4 2.65665 -1.01131 2.30904
1466 4 1.59936 7.8967 -0.980291
2516 4 -0.510243 1.89422 3.23201
1820 4 1.41759 2.91579 -0.963662
216 10 -1.08515 5.53088 3.33942
1073 4 5.3784 8.01863 1.42666
2555 4 0.537227 -0.129032 5.93585
441 10 5.60115 6.07515 4.89221
2780 4 -0.647224 6.86221 3.68806
1458 4 7.48861 2.708 3.71699
1279 4 4.97694 6.2382 6.18557
1526 4 0.718067 1.58745 7.83443
856 10 -0.120255 0.954847 6.57098
1819 4 5.77488 0.878683 6.65561
2389 4 7.28442 5.77144 4.96724
625 10 4.2945 0.679595 6.07304
927 4 3.68965 1.73826 5.24031
1334 4 -0.479195 4.33574 4.26132
1040 4 5.4358 7.24459 3.74772
1069 4 5.05933 4.77499 4.05974
2045 4 2.49002 4.69814 3.78561
1057 4 -0.477376 2.29946 5.78735
2800 4 6.82625 3.15835 7.38737
633 10 -0.970619 2.82805 4.28597
2716 4 4.36568 -0.68433 5.2746
1012 4 3.47705 0.318141 7.44744
2463 4 2.12953 3.77952 7.42803
77 10 6.36056 1.86288 7.82188
2917 4 2.0032 7.56338 5.44814
2794 4 1.74502 7.7619 8.01333
1171 4 2.72976 1.97474 9.2223
1848 4 2.64088 4.77606 12.2513
2336 4 3.99298 -0.233032 9.90572
2955 4 7.34121 0.732411 8.4723
98 10 1.62472 2.77135 8.36534
1324 4 -0.369575 0.610573 10.9842
41 10 3.87987 0.839433 8.91502
980 4 0.507954 3.24812 9.43007
315 10 -0.482411 -0.334985 12.0621
2715 4 -0.730739 3.56452 11.5517
1675 4 0.132241 5.71125 10.1306
324 10 -0.37495 4.30769 10.1181
1439 4 5.07576 1.88827 8.82207
1632 4 7.58791 0.5888 11.0828
1523 4 2.17232 7.92147 10.4621
2375 4 1.58301 6.95536 12.7476
2266 4 4.30739 1.00989 15.206
1926 4 2.47278 0.672384 13.3577
213 10 2.7623 4.82892 15.9091
2697 4 5.73312 6.34443 15.4099
361 10 -0.365231 3.60345 13.1411
1485 4 1.38087 4.46896 16.7264
575 10 7.27369 2.81946 17.0128
2207 4 2.26514 5.68119 14.7051
2153 4 0.294648 5.04266 13.4017
2072 4 3.62385 5.89415 16.7849
2227 4 0.794337 7.71115 16.6492
305 10 1.1373 1.20997 14.0792
2106 4 1.02049 1.31248 15.5277
872 4 6.54221 4.19576 16.2335
2044 4 3.54538 3.62328 15.6182
205 10 4.49587 7.0193 16.1134
91 10 6.99922 5.61819 16.0695
1630 4 7.61922 -0.372309 14.9722
2694 4 7.63781 1.98604 15.5512
1020 4 7.8153 4.40324 13.1239
530 10 4.09389 0.943272 13.7479
1916 4 4.63629 -0.611233 13.1173
2884 4 0.0921706 0.145441 13.4648
2345 4 0.855292 2.51193 13.1419
548 10 1.82553 5.52322 13.1525
1580 4 3.77774 8.05216 15.3978
1035 4 8.10203 6.02172 15.0756
1204 4 4.64185 1.94013 12.8006
2507 4 5.56502 -0.508309 21.3303
2453 4 0.544374 -0.796902 18.4195
2568 4 2.39595 3.92904 18.9734
825 10 2.62895 3.25573 20.6088
149 10 1.19877 4.61706 18.3089
2731 4 1.18905 6.1225 18.7224
2378 4 1.18597 2.94874 20.9633
302 10 7.65395 3.87035 21.1086
2501 4 -0.211967 4.02733 18.6438
1885 4 2.932 4.75189 21.1886
2275 4 3.76554 2.34491 20.6236
1133 4 6.52625 4.27599 20.251
803 10 -0.848014 -0.597964 18.0412
520 10 6.64395 7.90382 17.7565
292 10 0.4388 7.4522 18.0476
1865 4 6.3166 2.05988 17.8585
167 10 6.72057 -0.04482 22.0234
2088 4 6.57185 8.0024 19.4138
2110 4 7.86864 7.39261 21.4523
874 4 5.09039 7.64012 17.5747
1245 4 7.88279 0.45634 21.12
942 4 -1.09847 7.34653 18.4951
2726 4 7.17845 6.39718 17.4539
2264 4 0.16083 6.45249 22.0256
1097 4 2.5824 6.62961 22.7865
402 10 7.89824 8.03324 24.6082
476 10 1.0338 6.83306 23.1368
814 10 1.53352 4.49376 24.7614
1908 4 -1.06387 2.15952 22.7949
2693 4 0.202922 3.66336 24.2401
2224 4 2.04448 4.11518 26.0373
1331 4 7.20997 6.80664 24.6236
2209 4 0.960767 1.1327 24.0857
2009 4 2.62532 4.22383 23.5885
334 10 -0.137461 2.10331 24.0701
2521 4 6.05582 2.84202 24.7241
895 4 7.38847 -1.06844 23.0538
882 4 7.30809 3.40599 22.5898
1488 4 0.982371 6.00771 24.5227
1356 4 4.48986 1.91224 26.3779
286 10 7.12042 2.27254 23.7008
823 10 5.6895 2.92355 26.2938
2054 4 4.81625 5.43545 22.9052
2446 4 6.23326 1.16039 22.9575
248 10 3.44428 5.27116 22.632
2972 4 4.76887 -0.543886 26.6018
1228 4 5.48957 4.26748 26.7274
111 10 -0.459245 5.97453 30.0289
1896 4 0.0653269 1.26279 29.9277
1858 4 3.06633 3.3256 29.9826
658 10 -0.435808 0.0247781 30.4272
1165 4 -0.239367 4.77376 28.9072
515 10 2.32166 6.50004 30.6586
753 10 6.83916 3.79632 30.7467
780 10 7.93318 2.85698 28.0239
2228 4 -0.659148 2.7641 27.5566
1729 4 7.65143 4.87644 31.35
59 10 3.92265 4.06578 30.8939
2598 4 7.23794 3.68891 29.1129
1055 4 4.44726 0.884663 28.6641
1278 4 5.35963 4.44314 30.3698
1479 4 1.06644 5.71187 30.771
2994 4 -0.57944 7.23962 29.2858
2713 4 6.8612 2.14884 27.1944
2686 4 6.74493 2.41551 31.1321
2503 4 6.9379 7.67963 28.1736
2124 4 2.76028 7.00413 29.3085
648 10 3.8278 0.697588 27.348
1153 4 -1.19984 0.24148 27.0429
1922 4 2.42073 0.439286 27.1852
2542 4 3.41363 5.53648 31.3699
1762 4 2.28952 -1.20409 30.9388
1250 4 -0.8375 2.88668 32.4508
1132 4 3.95618 3.32486 32.3396
1670 4 4.05706 2.64648 34.8063
2198 4 6.17234 3.56318 33.6569
2018 4 2.24187 1.03968 32.2529
1007 4 1.1928 4.72902 34.5251
775 10 0.487631 3.96441 35.5784
105 10 4.71988 3.63611 33.7216
8 10 5.05818 6.16198 35.0267
75 10 1.62097 -0.303013 32.3416
992 4 -0.806104 3.10757 35.0931
1461 4 4.17335 5.05278 34.2348
968 4 5.79933 6.84594 33.6884
1826 4 3.83451 7.1149 35.4492
2983 4 -0.0525001 -0.311618 31.8875
822 10 4.41621 1.59939 36.0056
938 4 2.08074 7.60828 31.814
1999 4 5.56253 0.651359 35.7707
2369 4 5.98102 5.6239 36.0191
2064 4 1.56873 -1.15629 33.5191
898 4 5.10535 16.968 -0.662443
1777 4 3.55257 9.65364 -1.15934
819 10 -0.0965838 15.9053 1.14565
1749 4 3.65686 15.2646 0.667241
549 10 4.85597 16.1035 0.666395
2593 4 0.39429 16.7541 2.15981
646 10 6.65426 14.0178 1.86459
1633 4 6.2615 12.8517 1.06355
2278 4 6.1995 15.4242 1.01469
1722 4 0.795693 15.8949 -0.19844
2461 4 1.77059 13.3969 -0.583905
1416 4 -0.124543 14.2808 1.16047
1805 4 4.836 17.2543 1.76015
1660 4 6.04311 14.2735 3.33078
364 10 0.604291 14.2398 -0.316105
1037 4 1.65346 8.72716 1.44497
1766 4 -0.115212 9.38585 -0.349541
229 10 0.83622 8.32029 0.313137
74 10 1.31953 8.22469 6.53383
2447 4 7.9976 16.6434 4.85767
2735 4 8.02887 10.2295 3.57201
2995 4 5.2061 14.1271 5.68809
2032 4 0.123932 13.9827 7.10597
774 10 5.63708 14.4182 7.26133
1628 4 1.33348 11.9981 7.66766
2254 4 -0.281581 8.18126 6.55766
1192 4 5.08792 11.9841 4.2631
19 10 1.55372 13.606 7.47975
687 10 5.88027 13.1481 4.61017
31 10 2.32904 10.7752 7.61287
1782 4 1.50869 9.83479 6.64045
2865 4 2.72681 13.9979 6.67779
551 10 -0.514912 15.4214 6.45124
1557 4 7.3799 12.9305 5.15758
1203 4 5.28917 15.9825 7.03617
1200 4 0.174701 16.6035 6.97089
2746 4 7.25469 14.3391 7.2629
2432 4 3.74336 10.8468 7.36917
1988 4 -0.666702 11.0445 3.73045
1024 4 7.61477 9.99935 6.19639
1876 4 -0.859234 15.0919 5.03745
745 10 5.28462 17.2347 7.98516
311 10 8.10517 10.5844 7.57451
2030 4 6.55234 15.8432 11.5761
873 4 0.915706 15.6293 11.1359
301 10 0.520614 14.4719 10.111
791 10 -0.470776 12.5846 12.1427
2505 4 5.94567 13.4583 11.3795
809 10 5.9756 9.95676 9.79543
2382 4 2.07892 10.0538 9.04573
939 4 0.408577 13.0389 10.7728
1743 4 -0.898936 14.986 9.72119
1810 4 3.45592 16.1208 11.517
552 10 2.13255 16.1158 12.1275
815 10 7.12053 9.91998 12.5045
1446 4 5.01266 13.5933 8.2739
556 10 1.29491 8.656 9.29924
2364 4 5.32062 11.3336 10.2737
715 10 7.28245 14.3462 11.561
2184 4 -0.822726 8.58678 12.6279
2167 4 1.62839 14.176 8.99904
2901 4 -0.143322 11.0228 12.1641
1415 4 5.0543 8.89109 9.3554
746 10 5.15816 12.095 11.6887
2781 4 -0.0917929 8.87667 9.65625
2993 4 7.00136 9.49907 10.9426
2244 4 6.91401 10.5148 8.59881
2514 4 3.79027 12.2241 12.1979
113 10 6.49191 16.9894 10.504
1447 4 7.88292 17.373 9.82222
1707 4 1.49375 9.35911 12.6352
1370 4 5.55627 16.4632 9.41432
319 10 2.34828 8.24055 12.0479
1130 4 3.73372 8.40023 12.3034
1774 4 6.18072 11.227 12.7069
795 10 0.853248 14.4047 14.1692
1201 4 2.01669 14.9632 13.2844
1981 4 2.85886 11.2641 15.943
2392 4 7.01868 8.79753 13.3911
2810 4 6.0574 15.651 16.8981
40 10 3.35111 11.0958 17.3491
1219 4 7.46503 8.87198 17.0857
1395 4 -0.318531 15.4021 13.8509
2485 4 7.68475 14.3082 15.5717
2975 4 4.34013 15.0824 14.9556
1363 4 -0.211523 10.1267 14.6454
638 10 4.56793 15.9815 16.1448
1064 4 1.1049 14.2028 15.5667
1971 4 0.559101 13.1093 13.2382
1174 4 7.50434 14.2969 13.187
674 10 7.37568 14.7664 17.0527
369 10 0.0287556 9.81846 13.2628
2942 4 3.54854 15.3043 17.35
1198 4 7.95079 16.4687 14.3667
2141 4 0.570451 12.4835 21.994
322 10 7.3115 8.60519 20.5938
1631 4 -1.19523 11.8071 20.1196
1110 4 6.11999 9.18972 21.442
1108 4 0.858919 8.49327 19.1442
1888 4 3.42213 12.4308 20.7215
851 10 1.97268 9.5516 19.5984
1535 4 4.43965 16.6008 19.3586
620 10 2.71231 13.0597 19.6348
2733 4 1.03634 10.4832 20.4687
2256 4 6.09586 14.5818 21.3531
2880 4 1.08339 12.9146 19.6142
153 10 3.34642 15.878 18.7624
1869 4 2.67584 14.644 19.5673
494 10 0.188129 11.8938 20.5137
1175 4 3.11711 8.97068 20.2288
2233 4 1.96307 16.7192 18.7765
2359 4 2.14529 10.297 18.2061
1860 4 3.09864 12.5537 18.1732
949 4 7.52335 13.6814 18.0183
1414 4 4.66848 10.4896 17.6238
1215 4 8.00755 17.1159 19.5724
1436 4 -0.156179 13.588 24.109
1866 4 4.42681 13.5015 25.5805
1205 4 7.03736 11.317 22.7198
592 10 -0.0686852 9.19816 24.628
1938 4 1.27085 9.9325 25.4498
2350 4 1.94758 12.0765 24.0604
2717 4 7.16182 9.09716 23.7874
1311 4 7.17072 12.274 26.1882
1406 4 0.97909 8.28433 23.7482
448 10 6.13748 10.0045 22.9189
2304 4 -0.790847 10.3328 23.8997
2159 4 2.94392 11.6278 26.2943
2449 4 5.13508 14.9046 23.703
782 10 1.59647 11.4252 25.4678
2320 4 3.21778 15.8038 25.3467
1209 4 -0.196062 14.7895 26.41
1619 4 0.402079 12.1965 26.1762
681 10 -0.379127 13.5331 25.6794
1650 4 5.51079 17.1635 22.2005
291 10 4.47974 15.0707 25.2236
226 10 1.1585 13.2672 23.1978
1100 4 4.81388 10.2404 23.5132
1285 4 5.74896 15.5195 26.0239
1074 4 7.37685 15.848 23.1407
574 10 5.9873 15.5349 22.4788
2486 4 2.07796 14.4001 23.0356
1023 4 8.08426 8.69807 26.0621
2857 4 -0.774664 8.30951 25.6167
2252 4 -0.926703 17.2575 23.2427
2220 4 2.94727 17.2784 22.3321
2609 4 4.98892 11.9384 27.4989
833 10 6.54495 11.5375 27.2835
600 10 3.82101 12.8078 26.8969
642 10 6.12764 16.7013 27.0674
712 10 2.49873 11.1263 30.8499
2339 4 3.15268 13.5826 27.9205
327 10 -0.343318 11.9449 30.5597
1577 4 -0.562466 11.9933 29.1414
955 4 5.67838 15.8839 28.3735
2026 4 2.31078 10.2317 29.6571
582 10 5.12264 16.5926 29.74
2342 4 7.24236 11.6292 28.6969
727 10 7.46096 8.82482 27.4788
1983 4 5.74532 15.5351 30.7802
2872 4 7.82632 9.89253 30.3584
1145 4 3.70331 16.9863 29.7469
1301 4 7.49325 17.2194 27.1426
1639 4 6.28778 9.94838 27.2772
1629 4 3.78676 11.903 30.9187
2433 4 1.15371 12.069 30.9964
2288 4 -0.76134 10.58 31.4015
1976 4 -1.00418 13.1096 31.418
1779 4 7.66672 12.796 34.1354
2040 4 6.52322 13.5924 31.9955
1792 4 2.3089 8.46751 34.1219
2285 4 0.489775 16.7164 33.9608
459 10 5.75051 8.45142 33.3893
1224 4 2.48059 15.8482 32.4305
647 10 -0.150207 13.4735 34.4513
247 10 2.90627 8.4509 35.6408
598 10 1.1821 15.5834 33.0714
1849 4 5.17189 12.2547 33.8185
1571 4 1.13592 14.2085 33.8648
2356 4 6.94794 11.3271 32.1495
2412 4 5.29049 15.5264 33.3266
2515 4 0.0119679 12.0365 34.4437
256 10 2.7634 8.74209 32.6489
518 10 7.7748 9.9874 31.9235
1539 4 4.31577 8.54369 32.5739
136 10 6.22367 15.1791 32.2587
2096 4 6.06933 9.26842 34.5668
564 10 6.41045 12.484 33.1655
2701 4 6.62557 8.83444 32.1225
2363 4 2.20375 10.1741 32.3502
2511 4 0.0106583 15.3052 32.0212
1720 4 7.71919 15.9009 32.1476
326 10 8.01342 17.3915 32.5772
2906 4 -0.537688 14.1191 35.9228
2243 4 1.24698 25.2919 -0.871194
1386 4 1.19934 20.4724 1.90881
1500 4 -0.268047 22.3686 0.822877
853 10 7.45945 18.7711 1.33118
1309 4 6.46598 25.2591 -0.621998
1354 4 2.17927 21.9584 0.147502
2132 4 5.97069 19.4133 1.47563
1567 4 0.577009 20.1548 -0.453967
1540 4 2.36202 24.7798 3.09295
1233 4 4.50118 22.616 1.01074
2648 4 -0.31986 25.3795 1.69668
2481 4 3.77639 18.9343 0.230877
665 10 0.767654 21.362 0.617556
683 10 3.71893 22.4862 -0.179915
1163 4 3.86966 19.4745 2.7509
278 10 4.57105 18.795 1.57218
1548 4 7.53098 18.0985 2.85486
156 10 -0.92175 26.3834 2.54816
1400 4 7.96749 23.5736 2.66596
2976 4 7.8338 17.8026 0.24806
643 10 6.65829 26.5733 -1.12764
2303 4 3.37342 23.7447 -1.12965
1120 4 3.40914 17.7496 4.62957
1243 4 6.3755 20.1347 5.31255
7 10 5.21751 20.8396 5.80904
1644 4 5.06589 20.7949 7.45332
82 10 1.88949 23.8267 4.09713
1589 4 2.80321 23.7175 5.51047
1480 4 6.98146 26.3601 6.89855
988 4 1.76964 22.2628 3.63006
1824 4 4.00005 23.1186 7.70638
277 10 0.887904 20.9006 3.5264
2058 4 6.79522 17.8712 7.70616
1050 4 4.97971 24.9054 6.22947
894 4 3.83996 20.3196 5.22417
550 10 4.25117 23.6021 6.14284
294 10 3.2127 19.1394 4.2901
1137 4 1.30934 26.2783 7.31334
1569 4 5.14839 22.5133 5.50647
1714 4 0.561275 24.1067 4.8947
2881 4 -0.456066 20.9632 4.07318
2149 4 1.54547 20.8909 7.01125
2319 4 1.81549 19.8005 4.16744
2914 4 -0.742766 26.2357 4.16271
685 10 5.61016 26.4465 6.39254
847 10 -0.0330673 25.8032 7.82407
2927 4 4.22296 18.2038 7.83208
1532 4 -0.895053 25.5293 6.43661
129 10 -0.911334 24.8891 4.98632
1530 4 -1.2206 22.6034 7.37641
834 10 5.64509 19.0045 12.5908
2311 4 6.28854 20.4596 12.0772
2134 4 -1.20191 23.4097 9.89435
1460 4 1.05956 19.4887 9.23921
2919 4 6.89011 24.0842 9.29997
755 10 4.31164 21.7651 8.47365
953 4 4.18538 25.2118 10.7817
1184 4 -0.245972 26.1355 12.1899
2961 4 6.59663 22.8603 11.4756
1407 4 5.33181 21.9587 9.64768
1912 4 5.98407 18.2682 11.1753
1424 4 3.05785 21.1725 9.16448
468 10 6.67945 22.7833 9.91928
2642 4 0.682868 22.0693 9.10909
2886 4 7.79102 21.6682 9.61542
239 10 1.43533 20.6796 8.47138
477 10 -0.444522 22.9936 8.55295
255 10 3.50853 26.486 10.9976
2272 4 0.390821 24.3667 8.33177
2651 4 1.96899 26.5681 11.3978
618 10 6.04594 21.9242 12.6894
415 10 1.24925 25.6886 12.6157
1180 4 -0.813444 26.5702 8.82403
2107 4 1.62666 17.5276 12.5389
1965 4 0.439808 19.8167 12.7335
1703 4 7.25071 22.0767 13.7312
2372 4 4.44671 17.5111 16.0038
2594 4 4.74694 25.7446 14.6967
1316 4 1.0241 18.3363 14.8229
2803 4 6.70426 18.4659 13.6683
1090 4 -0.833016 17.6933 13.2259
1431 4 6.58973 24.0376 15.257
491 10 0.583363 18.4694 13.2834
261 10 7.80898 23.4156 14.4415
793 10 5.7114 25.2501 15.6407
220 10 0.984062 19.4113 16.0235
2111 4 1.88232 20.55 15.9918
2114 4 1.24157 18.3307 17.1813
904 4 5.19095 24.7257 17.0593
2700 4 -0.593736 19.6461 16.0481
1295 4 1.68033 26.6533 13.8541
1010 4 5.60082 21.0656 16.6716
1667 4 6.69292 26.3902 16.0737
2564 4 -0.860085 26.1025 16.6627
2840 4 2.56456 24.5076 17.1986
2185 4 4.28631 19.0342 13.0231
1796 4 4.83402 22.3814 13.3019
1706 4 1.67914 24.3364 12.8178
357 10 4.78286 25.9423 20.1449
169 10 3.91042 24.2483 17.8076
636 10 3.69716 19.9415 19.9399
1747 4 2.90443 19.0036 18.996
2279 4 4.83731 25.4041 21.6407
2915 4 0.480771 21.6198 20.07
331 10 -0.845897 22.1437 19.4004
2094 4 4.37687 19.072 21.0449
1101 4 6.45468 22.4453 18.7742
1126 4 4.10228 24.7319 19.292
1211 4 4.78922 20.5273 19.0346
2332 4 -0.70934 21.2916 18.0168
1389 4 -1.1726 23.5503 19.4217
335 10 7.17157 21.9329 20.2243
2711 4 6.18478 22.2923 21.2722
395 10 1.57276 22.0193 21.1505
498 10 1.51406 18.3 18.758
1402 4 2.72256 20.9086 20.6628
97 10 5.37004 21.6487 17.9662
1550 4 2.13897 23.397 21.0881
1590 4 0.322054 18.6072 19.5952
1127 4 7.88188 20.6481 20.1645
1946 4 4.10884 22.6658 18.0707
1103 4 6.05641 26.3975 19.5885
2029 4 1.31934 23.3419 24.1402
389 10 5.09225 20.2716 24.2041
2310 4 5.47548 19.8028 25.7187
2824 4 5.65674 24.9796 24.074
206 10 4.16562 18.0216 22.2964
2978 4 0.11266 26.5101 24.8205
224 10 0.58069 22.1251 23.9883
716 10 5.83717 25.8536 22.931
2777 4 4.29715 21.4777 24.0776
2429 4 0.990154 26.0809 22.4201
2610 4 0.474766 21.058 24.9814
1907 4 6.62581 20.2805 23.6306
2925 4 4.48174 18.9495 23.5511
404 10 -0.222422 26.3145 23.2152
1476 4 0.977177 21.4551 22.4681
864 4 7.22854 25.6804 22.1758
2768 4 -1.03233 22.6077 23.5947
2398 4 7.69782 21.475 25.4669
650 10 7.98889 20.3193 24.3916
2457 4 4.90742 17.6579 26.7262
761 10 5.71111 19.4491 29.6411
2560 4 5.02914 25.8285 28.2791
749 10 3.57347 25.9243 28.3678
254 10 2.79557 23.1642 27.9058
921 4 2.90902 25.8178 29.9419
682 10 3.04568 24.4848 30.6569
1492 4 4.65487 20.0959 30.4052
1932 4 5.48073 19.5642 28.0229
2323 4 7.13496 20.2014 29.8198
2591 4 2.72696 24.8583 27.5605
1260 4 2.9622 23.3143 29.687
1733 4 3.11688 19.4431 26.9083
2226 4 6.22143 17.9223 29.9502
2820 4 1.48305 22.6478 27.6571
2929 4 0.117703 20.6795 30.7719
1082 4 4.07491 22.4545 27.5727
1008 4 -0.420137 18.3209 29.95
304 10 -0.475495 19.3549 31.041
2474 4 7.95568 23.2732 27.2783
1701 4 4.45886 24.4099 31.4126
778 10 4.5285 19.2169 26.8201
1787 4 7.83154 26.5823 34.9941
928 4 6.5855 21.3044 35.4047
1704 4 0.118814 18.6955 32.4552
1969 4 2.48302 22.0787 33.2156
790 10 -0.606426 20.2374 35.7515
2296 4 5.4061 19.2752 35.6081
2410 4 6.77456 24.6076 32.3987
26 10 -0.512528 18.0028 33.7025
713 10 7.32702 23.1502 32.3764
2928 4 4.92452 25.8029 33.4983
329 10 5.19887 20.796 34.9376
997 4 4.69944 20.8835 33.6007
1384 4 0.14874 23.3221 33.1729
2819 4 6.95015 18.2917 32.8524
1894 4 2.17502 24.3863 34.1337
2388 4 -0.0652066 19.0197 34.8924
1769 4 -0.151052 21.5263 34.9526
547 10 1.72145 23.3051 33.0959
571 10 -1.03745 22.7748 34.1617
829 10 5.52047 25.5337 32.0009
1565 4 3.53481 26.0957 35.5111
2000 4 6.48569 22.1201 31.8811
1778 4 1.92743 24.2527 31.7482
1061 4 7.82273 22.8811 33.8991
744 10 2.42723 24.9598 35.649
1593 4 3.19444 18.0832 35.1798
528 10 8.03018 21.5999 34.7478
2456 4 4.2955 21.4955 36.0905
781 10 4.28444 18.2097 36.0816
2065 4 3.41246 27.5298 0.693928
1765 4 4.09411 28.053 3.15529
561 10 7.78231 29.1101 -0.173511
2100 4 0.202851 32.9676 0.961003
1261 4 2.19403 31.6093 0.871101
797 10 1.75019 33.1896 0.81244
1333 4 6.83617 30.1847 -0.230156
2401 4 5.59651 34.6501 -0.982512
1873 4 3.92884 31.082 -0.889951
2597 4 6.73057 33.685 1.19558
2048 4 0.251572 29.0186 0.284828
1353 4 2.23104 34.0624 -0.278751
2527 4 3.89892 29.96 1.56004
1578 4 4.70893 34.7042 2.08823
2 10 3.35748 28.4854 1.85091
2384 4 7.11236 27.6 -0.0730797
175 10 3.66375 31.1335 0.511546
124 10 5.46085 33.3456 1.96972
1348 4 4.66866 32.1629 1.34807
148 10 0.399276 28.9918 1.72843
816 10 -1.0813 33.5068 2.00635
1732 4 1.83126 28.8584 2.30293
186 10 6.87846 34.1579 -0.546921
1678 4 2.3213 33.6769 2.27497
1537 4 -0.483702 27.9343 2.42319
2545 4 7.88911 35.5466 0.0660463
240 10 3.14869 34.9809 2.6664
1070 4 -0.0530614 30.2565 2.62266
1371 4 5.86242 32.9222 3.44049
1207 4 -1.22326 34.8984 2.20435
1494 4 -0.679098 32.6442 3.24015
2742 4 7.8925 33.2542 -1.1776
2331 4 1.26194 31.4491 4.54006
2817 4 0.233753 28.4509 6.4034
729 10 6.74415 33.3876 4.66225
2268 4 5.87552 34.6991 5.1526
1422 4 7.35461 30.1219 6.77354
733 10 -0.0386674 31.2217 3.89988
1230 4 6.2992 29.0922 3.4548
975 4 3.83657 34.6168 6.80454
1330 4 6.31637 32.248 5.68038
1159 4 3.16916 31.4441 7.60725
348 10 4.33212 35.0783 5.52188
2629 4 5.30583 27.2068 5.07847
1837 4 -0.602302 33.6731 6.74971
837 10 6.85751 31.4623 6.94079
485 10 5.17166 28.7433 4.30555
961 4 3.49264 34.7081 4.17263
2679 4 4.47868 29.7089 5.23948
640 10 1.49312 27.7255 6.43016
2003 4 2.4601 28.4278 7.67009
2666 4 4.6261 27.0058 7.58664
1859 4 7.88547 32.6569 7.39882
936 4 2.41475 27.3311 5.36686
1350 4 5.73751 31.5899 8.04925
2008 4 4.3495 31.4595 9.98085
1795 4 3.35043 32.2525 12.0384
2405 4 3.40766 27.3893 9.71202
1582 4 -0.46297 30.2224 8.64922
2152 4 7.41847 34.5495 10.3406
1275 4 4.42073 27.3455 12.0933
200 10 0.958078 34.6805 10.6957
434 10 3.3647 30.9704 11.1879
1376 4 0.352859 35.6202 11.9573
1902 4 0.179438 33.461 10.7845
2334 4 2.1162 30.2799 10.8555
756 10 4.2916 31.0207 8.45855
2732 4 2.4979 34.6264 11.3594
1710 4 4.38482 29.8917 11.8245
424 10 2.93721 33.71 12.5653
2990 4 1.14287 35.454 9.5264
133 10 3.78936 28.0767 8.31319
1842 4 4.60484 29.3473 8.55701
130 10 5.28499 29.9557 15.0824
590 10 1.63981 28.1726 14.3152
2740 4 5.3771 28.7481 13.9157
1935 4 0.415977 28.8645 14.0861
2599 4 2.23936 28.0138 15.75
508 10 7.75108 35.3745 14.5974
1549 4 2.35257 30.2687 17.0377
817 10 2.96407 28.9795 16.8274
2042 4 2.9355 28.8618 13.4734
1563 4 4.52912 29.1518 16.2846
1594 4 6.78097 30.0007 15.7495
1066 4 4.56373 35.1508 15.2109
832 10 4.96435 35.3595 13.8329
1283 4 4.86436 31.2895 14.6563
2544 4 6.50846 35.1555 13.5726
2897 4 2.08049 33.6694 13.7412
2495 4 7.84314 34.4163 15.7379
2473 4 7.96632 28.308 17.0191
2647 4 -0.931049 33.4011 17.3044
455 10 4.30797 28.6992 12.8231
1405 4 4.45285 34.2262 12.7803
2672 4 2.00566 29.0539 20.4082
43 10 3.14188 28.3952 19.7737
1031 4 5.67197 31.5431 19.6857
1760 4 6.9573 29.4659 18.9707
2506 4 4.13947 33.7307 20.0944
32 10 5.96311 29.9988 19.8848
1986 4 6.43763 33.4171 21.2048
416 10 5.0957 32.7531 20.6601
1308 4 4.49936 29.3022 19.9919
1317 4 3.13211 28.0276 18.0994
1957 4 6.42469 29.9076 21.4612
1144 4 0.258405 27.6201 18.4281
1864 4 4.72358 31.8016 21.9467
69 10 7.96291 33.8094 20.7961
2158 4 3.57366 27.0097 20.285
801 10 -0.938503 27.1343 17.7428
1131 4 6.90568 32.8673 26.2228
1817 4 5.617 27.4616 23.0017
1831 4 7.97479 34.3615 24.6793
989 4 0.277604 28.7787 25.7265
1688 4 -0.583629 35.054 23.6718
804 10 4.71962 28.2919 24.0489
2192 4 -0.770554 32.7856 22.8223
2674 4 3.46144 27.7655 24.486
1059 4 4.61576 29.6648 23.2495
2653 4 0.975836 31.081 25.6469
1615 4 5.74593 28.6208 25.3187
941 4 6.57038 31.3792 23.6468
1754 4 5.76386 34.885 25.3713
670 10 7.14358 34.4932 25.991
838 10 4.28904 35.4431 25.8915
260 10 1.88361 32.3551 25.4447
380 10 5.67924 30.7649 22.6989
1652 4 0.936965 33.2396 24.4893
483 10 0.413912 33.9155 23.2105
1111 4 3.25352 32.2275 24.9319
2118 4 3.35855 35.4086 24.7552
160 10 -0.66192 27.475 25.874
1124 4 -1.10951 27.6353 22.9108
805 10 0.822512 29.9175 26.7013
390 10 5.93372 29.0618 26.7494
2664 4 1.3808 34.2883 22.1926
1409 4 4.59626 29.0654 27.5477
985 4 3.90346 34.4333 27.0854
210 10 0.222642 32.5409 30.9792
231 10 1.41167 35.1954 30.1532
806 10 7.08264 31.8218 27.5008
983 4 6.6078 32.2019 28.7933
1193 4 7.56125 35.3404 27.0898
2979 4 0.192373 30.2371 27.9824
1119 4 0.952452 33.9891 31.0724
2216 4 2.05575 34.6847 28.8116
3 10 2.80523 33.608 27.8619
1162 4 3.4198 32.4572 28.5414
1621 4 2.94534 29.3898 29.5367
2476 4 -0.81842 32.9706 29.7581
393 10 3.11657 28.89 28.187
1022 4 2.86226 27.2939 27.9252
1759 4 2.38888 29.538 26.9735
2710 4 -0.712364 26.9337 27.2384
1561 4 6.89967 28.076 27.4879
2482 4 0.101658 35.9541 29.7124
1964 4 1.04026 31.3634 30.9633
2807 4 1.72628 33.1892 26.816
2899 4 5.78228 26.7969 31.3112
1651 4 6.3172 30.6048 26.777
2688 4 0.384956 31.9308 34.6192
675 10 -0.802771 32.0301 33.8303
2874 4 3.47704 28.0492 33.95
2537 4 -0.622625 32.6471 32.3791
2120 4 5.55041 27.3655 35.2546
1143 4 -0.30074 27.0875 33.3113
453 10 4.2723 26.9178 34.4247
2631 4 13.786 2.40265 2.23228
1166 4 14.3435 6.43367 -0.479498
2450 4 9.56691 4.28276 3.23845
1570 4 13.0284 5.59212 1.68608
10 10 16.5428 1.68261 -0.546185
2462 4 11.329 0.410694 2.38522
2790 4 16.0208 3.36254 2.81611
2607 4 12.7251 4.391 -0.659076
962 4 10.3908 4.4238 0.20198
354 10 11.1565 0.441012 0.760898
1006 4 8.72807 2.77993 1.43648
1685 4 12.3776 7.95433 1.5193
536 10 14.9822 2.89299 1.67115
2341 4 15.9359 5.89583 2.78001
1637 4 12.2823 -0.199055 0.0843301
747 10 13.8375 5.3085 0.229447
287 10 12.6783 6.83791 2.63319
728 10 9.69574 2.96411 0.260254
2522 4 9.65648 -0.171037 0.41712
2744 4 14.9153 4.23094 0.742254
1262 4 15.7533 1.84824 0.839658
3000 4 10.8946 1.9963 0.486199
281 10 8.80663 2.80296 3.10931
63 10 11.2895 4.95767 -1.05289
800 10 16.5896 4.74142 3.39142
897 4 11.1172 6.41125 3.14665
1928 4 16.6069 0.260794 -0.999391
1385 4 9.19487 2.57388 -1.19085
1721 4 9.21875 7.77919 1.1345
1351 4 9.01857 -0.547814 3.34444
2267 4 11.1145 6.4743 -0.999006
2082 4 12.9498 2.47276 5.71656
397 10 10.539 5.31094 4.1092
214 10 16.6432 0.0793281 7.0925
3002 4 12.889 -0.564049 6.25071
1383 4 11.048 0.106598 4.80508
1303 4 9.7309 5.99376 5.2557
372 10 12.7014 3.88311 5.88595
2639 4 15.8401 3.95638 7.36146
2258 4 11.6621 4.51254 4.79059
2907 4 17.1407 0.728684 5.77566
835 10 15.5423 4.85447 6.27932
2875 4 16.4401 4.54766 4.98422
1270 4 12.0628 4.43408 7.26775
1142 4 8.20805 6.90335 7.14525
1575 4 15.1561 -0.128361 6.70294
2523 4 9.57089 3.87611 7.18764
332 10 13.7696 -0.610606 7.51623
2758 4 15.6848 6.40898 6.32979
946 4 14.0088 4.7436 5.77595
107 10 8.34841 6.72593 5.7307
293 10 15.1269 7.80232 6.99025
211 10 11.3679 -1.01983 5.86211
523 10 10.6649 4.16683 8.07836
442 10 10.2013 0.297809 3.51629
1948 4 13.4418 7.28004 3.80141
2707 4 13.674 8.02087 6.87817
1018 4 9.97892 1.91714 3.62273
339 10 14.5459 -0.696254 11.8878
208 10 9.55509 7.12267 11.7971
2793 4 14.1526 2.33566 10.0338
710 10 10.6255 2.17219 10.3307
635 10 13.3781 1.10267 9.89977
2041 4 11.2247 3.09131 9.18841
1104 4 10.9895 6.58359 11.1391
2143 4 9.53345 1.36572 9.47886
2283 4 12.8218 6.39063 9.31364
1463 4 13.1475 0.628266 8.37197
1115 4 8.32175 6.93992 11.0259
1709 4 10.1431 2.87141 11.5603
2438 4 10.7452 7.97109 9.06618
1157 4 11.8684 1.14813 10.5275
1150 4 13.7892 -0.230303 10.625
1344 4 10.4698 5.4849 8.9518
656 10 11.4198 6.65618 9.62974
2559 4 15.9861 -0.370697 11.9324
2854 4 15.6977 7.77986 8.46662
2436 4 16.7772 0.820389 8.35864
1918 4 8.94829 -0.931879 9.51043
480 10 8.23835 0.460847 9.81107
1816 4 15.225 0.504355 14.9942
1640 4 9.58649 6.26692 13.1808
60 10 11.5107 4.56687 14.8772
2620 4 15.812 1.74209 17.2214
54 10 16.0876 1.75162 15.6227
2208 4 9.07298 0.287078 16.8107
2337 4 9.82279 1.02142 14.4234
1281 4 11.7632 5.72511 15.9998
444 10 8.78321 5.18293 13.8944
1068 4 12.2865 4.73123 13.6782
2441 4 15.9545 2.98 14.8598
2571 4 9.92957 4.52026 14.7533
519 10 8.67839 0.802416 15.3227
1579 4 11.7289 3.2806 15.8504
1041 4 12.7611 0.0205507 15.4116
2494 4 13.682 -0.0613797 13.1092
178 10 13.9697 -0.292078 14.7048
368 10 12.006 7.29487 16.2297
2204 4 13.1437 7.70847 15.1165
1030 4 13.5868 2.75479 17.2813
711 10 11.9605 2.93664 17.3807
2517 4 11.3778 1.43524 17.3612
1246 4 15.4187 3.501 19.0754
1812 4 13.0432 -0.535643 18.9038
619 10 14.5381 -0.297145 19.3553
2520 4 14.412 1.34378 19.3045
195 10 10.2494 0.425764 17.8494
318 10 9.16347 1.29769 20.6454
469 10 9.16794 6.46023 20.9935
2930 4 11.455 3.6979 18.5222
1661 4 8.68329 5.01195 21.5189
1804 4 9.73337 6.68511 19.6623
1666 4 14.4813 -0.513076 20.927
1741 4 15.5999 -0.989525 18.6637
580 10 14.8169 2.45253 18.2827
2223 4 10.797 -1.0484 17.9436
1239 4 9.38056 0.783703 19.1024
2592 4 10.3701 1.26719 21.4377
2173 4 8.50777 3.49485 17.4375
914 4 8.49275 2.73602 20.4569
2294 4 14.7473 8.08955 19.2579
1967 4 12.8111 7.42753 17.5815
1518 4 17.3766 1.87248 21.9694
2122 4 8.3527 1.79945 24.3038
2371 4 13.0188 3.37327 26.0939
906 4 13.7223 7.55982 25.651
92 10 16.9239 2.41323 25.8548
151 10 17.1097 0.966605 23.086
1451 4 9.77522 5.02328 25.0626
2657 4 15.9039 -0.0628046 22.9959
1412 4 16.7222 1.64116 24.5297
2916 4 15.7022 6.83707 24.1159
1994 4 10.6319 2.874 25.9596
573 10 14.9979 6.68393 25.3749
4 10 9.9808 4.27807 26.2752
132 10 11.9196 2.1097 26.5553
1522 4 12.3571 0.824981 25.93
1647 4 13.6484 1.28866 22.8445
2366 4 15.9171 6.98893 26.7181
2968 4 14.4943 5.21423 25.7426
2380 4 15.4973 2.99865 26.0373
337 10 10.4966 8.10116 22.994
168 10 14.3952 0.0595776 22.4725
1475 4 10.0861 6.76964 22.2494
597 10 14.36 3.89337 26.7081
1392 4 11.8591 8.06796 23.5803
920 4 16.3068 5.06903 30.7159
510 10 12.0425 5.88245 31.2442
2399 4 14.4988 4.11634 28.1302
666 10 16.6294 0.932823 30.6948
2893 4 9.06351 1.87677 28.2957
1611 4 10.9188 4.93377 27.4086
1396 4 16.0543 7.02487 29.2719
204 10 10.9974 6.28784 28.2623
1214 4 11.6371 5.77834 29.6318
1306 4 10.4525 2.94942 30.2101
2534 4 12.3127 6.93301 27.5429
28 10 10.4367 1.79335 29.2703
2056 4 10.5719 0.356001 29.5363
268 10 17.2014 5.87677 29.6729
2466 4 11.564 2.26959 28.1107
1086 4 9.78649 7.1018 28.3872
2566 4 16.5108 2.59373 30.4433
1914 4 15.9575 0.350146 29.4638
303 10 15.8376 7.90895 28.0065
918 4 13.0084 4.57829 31.2181
1011 4 8.56848 4.0307 27.0942
2055 4 9.63136 -0.599391 32.6923
2573 4 10.764 4.2931 34.9982
531 10 13.6419 4.10949 32.6377
870 4 13.8655 4.97583 33.7332
381 10 12.6658 1.53774 33.9463
2508 4 9.24226 2.6534 33.5167
1761 4 10.8352 5.97308 32.1015
2658 4 12.0386 0.503118 32.8166
3001 4 11.3782 1.95765 34.8893
610 10 10.0494 2.81257 34.7111
1186 4 12.7296 2.82307 33.019
1746 4 16.9979 7.91474 33.2809
708 10 10.3171 7.6362 35.4745
2775 4 11.3795 8.08219 34.3497
885 4 16.3051 2.78112 35.8336
1949 4 13.7954 1.02602 34.6813
862 4 9.07326 7.13449 34.9642
199 10 11.0477 -0.774931 32.7774
2826 4 16.3406 0.700049 32.1318
1658 4 14.9015 3.40151 32.0446
412 10 16.4702 3.66443 31.5472
1583 4 13.0266 7.03558 31.4299
1105 4 12.5404 13.1956 2.12581
300 10 9.41401 9.08454 0.49757
296 10 11.5537 13.164 3.20085
871 4 10.0298 15.1004 0.553173
1123 4 12.7497 17.0336 2.32898
811 10 12.0534 9.57337 1.82533
1654 4 13.1441 10.4591 1.58404
2301 4 8.3899 10.0897 0.170043
2575 4 15.5244 14.2195 3.19401
263 10 9.56821 15.0068 1.93491
2217 4 9.39724 16.4241 2.68686
2923 4 10.3729 14.2394 3.04206
2274 4 10.6705 9.91587 1.1719
2818 4 12.1138 17.4102 -0.162846
1648 4 14.1381 14.5015 -0.500569
2911 4 14.5615 16.9376 0.341971
854 10 14.5085 15.8482 -0.907277
1872 4 11.8659 11.8376 -0.953164
1524 4 10.3408 8.79244 -0.822973
2581 4 16.2287 11.762 -0.165219
802 10 16.9818 10.9422 -1.09941
2734 4 8.18926 14.235 2.17344
1135 4 11.5714 9.47744 3.49623
398 10 15.8936 15.1719 6.95874
2193 4 16.1721 8.81331 6.23733
1748 4 9.57188 14.1087 6.10579
2578 4 15.9788 14.2622 5.695
1398 4 14.5585 12.4055 4.79571
1643 4 12.4227 11.1176 5.29433
690 10 13.1414 12.6304 5.40104
2809 4 9.95707 10.2885 5.31453